ITEM: TIMESTEP
0
ITEM: NUMBER OF ATOMS
16000
ITEM: BOX BOUNDS pp pp pp
-28.5532499834 28.5532499834
-28.5532499834 28.5532499834
-28.5532499834 28.5532499834
ITEM: ATOMS id type x y z
1 1 -28.5532499834 -28.5532499834 -28.5532499834
2 1 -27.1255874842 -27.1255874842 -27.1255874842
3 1 -25.697924985 -28.5532499834 -28.5532499834
41 1 -28.5532499834 -25.697924985 -28.5532499834
43 1 -25.697924985 -25.697924985 -28.5532499834
801 1 -28.5532499834 -28.5532499834 -25.697924985
803 1 -25.697924985 -28.5532499834 -25.697924985
841 1 -28.5532499834 -25.697924985 -25.697924985
843 1 -25.697924985 -25.697924985 -25.697924985
4 1 -24.2702624859 -27.1255874842 -27.1255874842
5 1 -22.8425999867 -28.5532499834 -28.5532499834
6 1 -21.4149374875 -27.1255874842 -27.1255874842
45 1 -22.8425999867 -25.697924985 -28.5532499834
805 1 -22.8425999867 -28.5532499834 -25.697924985
845 1 -22.8425999867 -25.697924985 -25.697924985
7 1 -19.9872749884 -28.5532499834 -28.5532499834
8 1 -18.5596124892 -27.1255874842 -27.1255874842
47 1 -19.9872749884 -25.697924985 -28.5532499834
807 1 -19.9872749884 -28.5532499834 -25.697924985
847 1 -19.9872749884 -25.697924985 -25.697924985
9 1 -17.13194999 -28.5532499834 -28.5532499834
10 1 -15.7042874909 -27.1255874842 -27.1255874842
11 1 -14.2766249917 -28.5532499834 -28.5532499834
49 1 -17.13194999 -25.697924985 -28.5532499834
51 1 -14.2766249917 -25.697924985 -28.5532499834
809 1 -17.13194999 -28.5532499834 -25.697924985
811 1 -14.2766249917 -28.5532499834 -25.697924985
849 1 -17.13194999 -25.697924985 -25.697924985
851 1 -14.2766249917 -25.697924985 -25.697924985
12 1 -12.8489624925 -27.1255874842 -27.1255874842
13 1 -11.4212999934 -28.5532499834 -28.5532499834
14 1 -9.9936374942 -27.1255874842 -27.1255874842
53 1 -11.4212999934 -25.697924985 -28.5532499834
813 1 -11.4212999934 -28.5532499834 -25.697924985
853 1 -11.4212999934 -25.697924985 -25.697924985
15 1 -8.565974995 -28.5532499834 -28.5532499834
16 1 -7.1383124958 -27.1255874842 -27.1255874842
17 1 -5.7106499967 -28.5532499834 -28.5532499834
55 1 -8.565974995 -25.697924985 -28.5532499834
57 1 -5.7106499967 -25.697924985 -28.5532499834
815 1 -8.565974995 -28.5532499834 -25.697924985
817 1 -5.7106499967 -28.5532499834 -25.697924985
855 1 -8.565974995 -25.697924985 -25.697924985
857 1 -5.7106499967 -25.697924985 -25.697924985
18 1 -4.2829874975 -27.1255874842 -27.1255874842
19 1 -2.8553249983 -28.5532499834 -28.5532499834
59 1 -2.8553249983 -25.697924985 -28.5532499834
819 1 -2.8553249983 -28.5532499834 -25.697924985
859 1 -2.8553249983 -25.697924985 -25.697924985
20 1 -1.4276624992 -27.1255874842 -27.1255874842
21 1 6.4303641348e-21 -28.5532499834 -28.5532499834
22 1 1.4276624992 -27.1255874842 -27.1255874842
61 1 6.5683739837e-21 -25.697924985 -28.5532499834
821 1 6.5625231921e-21 -28.5532499834 -25.697924985
861 1 6.81892553e-21 -25.697924985 -25.697924985
23 1 2.8553249983 -28.5532499834 -28.5532499834
24 1 4.2829874975 -27.1255874842 -27.1255874842
63 1 2.8553249983 -25.697924985 -28.5532499834
823 1 2.8553249983 -28.5532499834 -25.697924985
863 1 2.8553249983 -25.697924985 -25.697924985
25 1 5.7106499967 -28.5532499834 -28.5532499834
26 1 7.1383124958 -27.1255874842 -27.1255874842
27 1 8.565974995 -28.5532499834 -28.5532499834
65 1 5.7106499967 -25.697924985 -28.5532499834
67 1 8.565974995 -25.697924985 -28.5532499834
825 1 5.7106499967 -28.5532499834 -25.697924985
827 1 8.565974995 -28.5532499834 -25.697924985
865 1 5.7106499967 -25.697924985 -25.697924985
867 1 8.565974995 -25.697924985 -25.697924985
28 1 9.9936374942 -27.1255874842 -27.1255874842
29 1 11.4212999934 -28.5532499834 -28.5532499834
30 1 12.8489624925 -27.1255874842 -27.1255874842
69 1 11.4212999934 -25.697924985 -28.5532499834
829 1 11.4212999934 -28.5532499834 -25.697924985
869 1 11.4212999934 -25.697924985 -25.697924985
31 1 14.2766249917 -28.5532499834 -28.5532499834
32 1 15.7042874909 -27.1255874842 -27.1255874842
33 1 17.13194999 -28.5532499834 -28.5532499834
71 1 14.2766249917 -25.697924985 -28.5532499834
73 1 17.13194999 -25.697924985 -28.5532499834
831 1 14.2766249917 -28.5532499834 -25.697924985
833 1 17.13194999 -28.5532499834 -25.697924985
871 1 14.2766249917 -25.697924985 -25.697924985
873 1 17.13194999 -25.697924985 -25.697924985
34 1 18.5596124892 -27.1255874842 -27.1255874842
35 1 19.9872749884 -28.5532499834 -28.5532499834
75 1 19.9872749884 -25.697924985 -28.5532499834
835 1 19.9872749884 -28.5532499834 -25.697924985
875 1 19.9872749884 -25.697924985 -25.697924985
36 1 21.4149374875 -27.1255874842 -27.1255874842
37 1 22.8425999867 -28.5532499834 -28.5532499834
38 1 24.2702624859 -27.1255874842 -27.1255874842
77 1 22.8425999867 -25.697924985 -28.5532499834
837 1 22.8425999867 -28.5532499834 -25.697924985
877 1 22.8425999867 -25.697924985 -25.697924985
39 1 25.697924985 -28.5532499834 -28.5532499834
40 1 27.1255874842 -27.1255874842 -27.1255874842
79 1 25.697924985 -25.697924985 -28.5532499834
839 1 25.697924985 -28.5532499834 -25.697924985
879 1 25.697924985 -25.697924985 -25.697924985
42 1 -27.1255874842 -24.2702624859 -27.1255874842
81 1 -28.5532499834 -22.8425999867 -28.5532499834
82 1 -27.1255874842 -21.4149374875 -27.1255874842
83 1 -25.697924985 -22.8425999867 -28.5532499834
881 1 -28.5532499834 -22.8425999867 -25.697924985
883 1 -25.697924985 -22.8425999867 -25.697924985
44 1 -24.2702624859 -24.2702624859 -27.1255874842
46 1 -21.4149374875 -24.2702624859 -27.1255874842
84 1 -24.2702624859 -21.4149374875 -27.1255874842
85 1 -22.8425999867 -22.8425999867 -28.5532499834
86 1 -21.4149374875 -21.4149374875 -27.1255874842
885 1 -22.8425999867 -22.8425999867 -25.697924985
48 1 -18.5596124892 -24.2702624859 -27.1255874842
87 1 -19.9872749884 -22.8425999867 -28.5532499834
88 1 -18.5596124892 -21.4149374875 -27.1255874842
887 1 -19.9872749884 -22.8425999867 -25.697924985
50 1 -15.7042874909 -24.2702624859 -27.1255874842
89 1 -17.13194999 -22.8425999867 -28.5532499834
90 1 -15.7042874909 -21.4149374875 -27.1255874842
91 1 -14.2766249917 -22.8425999867 -28.5532499834
889 1 -17.13194999 -22.8425999867 -25.697924985
891 1 -14.2766249917 -22.8425999867 -25.697924985
52 1 -12.8489624925 -24.2702624859 -27.1255874842
54 1 -9.9936374942 -24.2702624859 -27.1255874842
92 1 -12.8489624925 -21.4149374875 -27.1255874842
93 1 -11.4212999934 -22.8425999867 -28.5532499834
94 1 -9.9936374942 -21.4149374875 -27.1255874842
893 1 -11.4212999934 -22.8425999867 -25.697924985
56 1 -7.1383124958 -24.2702624859 -27.1255874842
95 1 -8.565974995 -22.8425999867 -28.5532499834
96 1 -7.1383124958 -21.4149374875 -27.1255874842
97 1 -5.7106499967 -22.8425999867 -28.5532499834
895 1 -8.565974995 -22.8425999867 -25.697924985
897 1 -5.7106499967 -22.8425999867 -25.697924985
58 1 -4.2829874975 -24.2702624859 -27.1255874842
98 1 -4.2829874975 -21.4149374875 -27.1255874842
99 1 -2.8553249983 -22.8425999867 -28.5532499834
899 1 -2.8553249983 -22.8425999867 -25.697924985
60 1 -1.4276624992 -24.2702624859 -27.1255874842
62 1 1.4276624992 -24.2702624859 -27.1255874842
100 1 -1.4276624992 -21.4149374875 -27.1255874842
101 1 6.321952408e-21 -22.8425999867 -28.5532499834
102 1 1.4276624992 -21.4149374875 -27.1255874842
901 1 6.2951075995e-21 -22.8425999867 -25.697924985
64 1 4.2829874975 -24.2702624859 -27.1255874842
103 1 2.8553249983 -22.8425999867 -28.5532499834
104 1 4.2829874975 -21.4149374875 -27.1255874842
903 1 2.8553249983 -22.8425999867 -25.697924985
66 1 7.1383124958 -24.2702624859 -27.1255874842
105 1 5.7106499967 -22.8425999867 -28.5532499834
106 1 7.1383124958 -21.4149374875 -27.1255874842
107 1 8.565974995 -22.8425999867 -28.5532499834
905 1 5.7106499967 -22.8425999867 -25.697924985
907 1 8.565974995 -22.8425999867 -25.697924985
68 1 9.9936374942 -24.2702624859 -27.1255874842
70 1 12.8489624925 -24.2702624859 -27.1255874842
108 1 9.9936374942 -21.4149374875 -27.1255874842
109 1 11.4212999934 -22.8425999867 -28.5532499834
110 1 12.8489624925 -21.4149374875 -27.1255874842
909 1 11.4212999934 -22.8425999867 -25.697924985
72 1 15.7042874909 -24.2702624859 -27.1255874842
111 1 14.2766249917 -22.8425999867 -28.5532499834
112 1 15.7042874909 -21.4149374875 -27.1255874842
113 1 17.13194999 -22.8425999867 -28.5532499834
911 1 14.2766249917 -22.8425999867 -25.697924985
913 1 17.13194999 -22.8425999867 -25.697924985
74 1 18.5596124892 -24.2702624859 -27.1255874842
114 1 18.5596124892 -21.4149374875 -27.1255874842
115 1 19.9872749884 -22.8425999867 -28.5532499834
915 1 19.9872749884 -22.8425999867 -25.697924985
76 1 21.4149374875 -24.2702624859 -27.1255874842
78 1 24.2702624859 -24.2702624859 -27.1255874842
116 1 21.4149374875 -21.4149374875 -27.1255874842
117 1 22.8425999867 -22.8425999867 -28.5532499834
118 1 24.2702624859 -21.4149374875 -27.1255874842
917 1 22.8425999867 -22.8425999867 -25.697924985
80 1 27.1255874842 -24.2702624859 -27.1255874842
119 1 25.697924985 -22.8425999867 -28.5532499834
120 1 27.1255874842 -21.4149374875 -27.1255874842
919 1 25.697924985 -22.8425999867 -25.697924985
121 1 -28.5532499834 -19.9872749884 -28.5532499834
122 1 -27.1255874842 -18.5596124892 -27.1255874842
123 1 -25.697924985 -19.9872749884 -28.5532499834
921 1 -28.5532499834 -19.9872749884 -25.697924985
923 1 -25.697924985 -19.9872749884 -25.697924985
124 1 -24.2702624859 -18.5596124892 -27.1255874842
125 1 -22.8425999867 -19.9872749884 -28.5532499834
126 1 -21.4149374875 -18.5596124892 -27.1255874842
925 1 -22.8425999867 -19.9872749884 -25.697924985
127 1 -19.9872749884 -19.9872749884 -28.5532499834
128 1 -18.5596124892 -18.5596124892 -27.1255874842
927 1 -19.9872749884 -19.9872749884 -25.697924985
129 1 -17.13194999 -19.9872749884 -28.5532499834
130 1 -15.7042874909 -18.5596124892 -27.1255874842
131 1 -14.2766249917 -19.9872749884 -28.5532499834
929 1 -17.13194999 -19.9872749884 -25.697924985
931 1 -14.2766249917 -19.9872749884 -25.697924985
132 1 -12.8489624925 -18.5596124892 -27.1255874842
133 1 -11.4212999934 -19.9872749884 -28.5532499834
134 1 -9.9936374942 -18.5596124892 -27.1255874842
933 1 -11.4212999934 -19.9872749884 -25.697924985
135 1 -8.565974995 -19.9872749884 -28.5532499834
136 1 -7.1383124958 -18.5596124892 -27.1255874842
137 1 -5.7106499967 -19.9872749884 -28.5532499834
935 1 -8.565974995 -19.9872749884 -25.697924985
937 1 -5.7106499967 -19.9872749884 -25.697924985
138 1 -4.2829874975 -18.5596124892 -27.1255874842
139 1 -2.8553249983 -19.9872749884 -28.5532499834
939 1 -2.8553249983 -19.9872749884 -25.697924985
140 1 -1.4276624992 -18.5596124892 -27.1255874842
141 1 6.1880725296e-21 -19.9872749884 -28.5532499834
142 1 1.4276624992 -18.5596124892 -27.1255874842
941 1 6.5501332805e-21 -19.9872749884 -25.697924985
143 1 2.8553249983 -19.9872749884 -28.5532499834
144 1 4.2829874975 -18.5596124892 -27.1255874842
943 1 2.8553249983 -19.9872749884 -25.697924985
145 1 5.7106499967 -19.9872749884 -28.5532499834
146 1 7.1383124958 -18.5596124892 -27.1255874842
147 1 8.565974995 -19.9872749884 -28.5532499834
945 1 5.7106499967 -19.9872749884 -25.697924985
947 1 8.565974995 -19.9872749884 -25.697924985
148 1 9.9936374942 -18.5596124892 -27.1255874842
149 1 11.4212999934 -19.9872749884 -28.5532499834
150 1 12.8489624925 -18.5596124892 -27.1255874842
949 1 11.4212999934 -19.9872749884 -25.697924985
151 1 14.2766249917 -19.9872749884 -28.5532499834
152 1 15.7042874909 -18.5596124892 -27.1255874842
153 1 17.13194999 -19.9872749884 -28.5532499834
951 1 14.2766249917 -19.9872749884 -25.697924985
953 1 17.13194999 -19.9872749884 -25.697924985
154 1 18.5596124892 -18.5596124892 -27.1255874842
155 1 19.9872749884 -19.9872749884 -28.5532499834
955 1 19.9872749884 -19.9872749884 -25.697924985
156 1 21.4149374875 -18.5596124892 -27.1255874842
157 1 22.8425999867 -19.9872749884 -28.5532499834
158 1 24.2702624859 -18.5596124892 -27.1255874842
957 1 22.8425999867 -19.9872749884 -25.697924985
159 1 25.697924985 -19.9872749884 -28.5532499834
160 1 27.1255874842 -18.5596124892 -27.1255874842
959 1 25.697924985 -19.9872749884 -25.697924985
161 1 -28.5532499834 -17.13194999 -28.5532499834
162 1 -27.1255874842 -15.7042874909 -27.1255874842
163 1 -25.697924985 -17.13194999 -28.5532499834
201 1 -28.5532499834 -14.2766249917 -28.5532499834
203 1 -25.697924985 -14.2766249917 -28.5532499834
961 1 -28.5532499834 -17.13194999 -25.697924985
963 1 -25.697924985 -17.13194999 -25.697924985
1001 1 -28.5532499834 -14.2766249917 -25.697924985
1003 1 -25.697924985 -14.2766249917 -25.697924985
164 1 -24.2702624859 -15.7042874909 -27.1255874842
165 1 -22.8425999867 -17.13194999 -28.5532499834
166 1 -21.4149374875 -15.7042874909 -27.1255874842
205 1 -22.8425999867 -14.2766249917 -28.5532499834
965 1 -22.8425999867 -17.13194999 -25.697924985
1005 1 -22.8425999867 -14.2766249917 -25.697924985
167 1 -19.9872749884 -17.13194999 -28.5532499834
168 1 -18.5596124892 -15.7042874909 -27.1255874842
207 1 -19.9872749884 -14.2766249917 -28.5532499834
967 1 -19.9872749884 -17.13194999 -25.697924985
1007 1 -19.9872749884 -14.2766249917 -25.697924985
169 1 -17.13194999 -17.13194999 -28.5532499834
170 1 -15.7042874909 -15.7042874909 -27.1255874842
171 1 -14.2766249917 -17.13194999 -28.5532499834
209 1 -17.13194999 -14.2766249917 -28.5532499834
211 1 -14.2766249917 -14.2766249917 -28.5532499834
969 1 -17.13194999 -17.13194999 -25.697924985
971 1 -14.2766249917 -17.13194999 -25.697924985
1009 1 -17.13194999 -14.2766249917 -25.697924985
1011 1 -14.2766249917 -14.2766249917 -25.697924985
172 1 -12.8489624925 -15.7042874909 -27.1255874842
173 1 -11.4212999934 -17.13194999 -28.5532499834
174 1 -9.9936374942 -15.7042874909 -27.1255874842
213 1 -11.4212999934 -14.2766249917 -28.5532499834
973 1 -11.4212999934 -17.13194999 -25.697924985
1013 1 -11.4212999934 -14.2766249917 -25.697924985
175 1 -8.565974995 -17.13194999 -28.5532499834
176 1 -7.1383124958 -15.7042874909 -27.1255874842
177 1 -5.7106499967 -17.13194999 -28.5532499834
215 1 -8.565974995 -14.2766249917 -28.5532499834
217 1 -5.7106499967 -14.2766249917 -28.5532499834
975 1 -8.565974995 -17.13194999 -25.697924985
977 1 -5.7106499967 -17.13194999 -25.697924985
1015 1 -8.565974995 -14.2766249917 -25.697924985
1017 1 -5.7106499967 -14.2766249917 -25.697924985
178 1 -4.2829874975 -15.7042874909 -27.1255874842
179 1 -2.8553249983 -17.13194999 -28.5532499834
219 1 -2.8553249983 -14.2766249917 -28.5532499834
979 1 -2.8553249983 -17.13194999 -25.697924985
1019 1 -2.8553249983 -14.2766249917 -25.697924985
180 1 -1.4276624992 -15.7042874909 -27.1255874842
181 1 6.5404966826e-21 -17.13194999 -28.5532499834
182 1 1.4276624992 -15.7042874909 -27.1255874842
221 1 6.1078822682e-21 -14.2766249917 -28.5532499834
981 1 6.391817743e-21 -17.13194999 -25.697924985
1021 1 6.41281176e-21 -14.2766249917 -25.697924985
183 1 2.8553249983 -17.13194999 -28.5532499834
184 1 4.2829874975 -15.7042874909 -27.1255874842
223 1 2.8553249983 -14.2766249917 -28.5532499834
983 1 2.8553249983 -17.13194999 -25.697924985
1023 1 2.8553249983 -14.2766249917 -25.697924985
185 1 5.7106499967 -17.13194999 -28.5532499834
186 1 7.1383124958 -15.7042874909 -27.1255874842
187 1 8.565974995 -17.13194999 -28.5532499834
225 1 5.7106499967 -14.2766249917 -28.5532499834
227 1 8.565974995 -14.2766249917 -28.5532499834
985 1 5.7106499967 -17.13194999 -25.697924985
987 1 8.565974995 -17.13194999 -25.697924985
1025 1 5.7106499967 -14.2766249917 -25.697924985
1027 1 8.565974995 -14.2766249917 -25.697924985
188 1 9.9936374942 -15.7042874909 -27.1255874842
189 1 11.4212999934 -17.13194999 -28.5532499834
190 1 12.8489624925 -15.7042874909 -27.1255874842
229 1 11.4212999934 -14.2766249917 -28.5532499834
989 1 11.4212999934 -17.13194999 -25.697924985
1029 1 11.4212999934 -14.2766249917 -25.697924985
191 1 14.2766249917 -17.13194999 -28.5532499834
192 1 15.7042874909 -15.7042874909 -27.1255874842
193 1 17.13194999 -17.13194999 -28.5532499834
231 1 14.2766249917 -14.2766249917 -28.5532499834
233 1 17.13194999 -14.2766249917 -28.5532499834
991 1 14.2766249917 -17.13194999 -25.697924985
993 1 17.13194999 -17.13194999 -25.697924985
1031 1 14.2766249917 -14.2766249917 -25.697924985
1033 1 17.13194999 -14.2766249917 -25.697924985
194 1 18.5596124892 -15.7042874909 -27.1255874842
195 1 19.9872749884 -17.13194999 -28.5532499834
235 1 19.9872749884 -14.2766249917 -28.5532499834
995 1 19.9872749884 -17.13194999 -25.697924985
1035 1 19.9872749884 -14.2766249917 -25.697924985
196 1 21.4149374875 -15.7042874909 -27.1255874842
197 1 22.8425999867 -17.13194999 -28.5532499834
198 1 24.2702624859 -15.7042874909 -27.1255874842
237 1 22.8425999867 -14.2766249917 -28.5532499834
997 1 22.8425999867 -17.13194999 -25.697924985
1037 1 22.8425999867 -14.2766249917 -25.697924985
199 1 25.697924985 -17.13194999 -28.5532499834
200 1 27.1255874842 -15.7042874909 -27.1255874842
239 1 25.697924985 -14.2766249917 -28.5532499834
999 1 25.697924985 -17.13194999 -25.697924985
1039 1 25.697924985 -14.2766249917 -25.697924985
202 1 -27.1255874842 -12.8489624925 -27.1255874842
241 1 -28.5532499834 -11.4212999934 -28.5532499834
242 1 -27.1255874842 -9.9936374942 -27.1255874842
243 1 -25.697924985 -11.4212999934 -28.5532499834
1041 1 -28.5532499834 -11.4212999934 -25.697924985
1043 1 -25.697924985 -11.4212999934 -25.697924985
204 1 -24.2702624859 -12.8489624925 -27.1255874842
206 1 -21.4149374875 -12.8489624925 -27.1255874842
244 1 -24.2702624859 -9.9936374942 -27.1255874842
245 1 -22.8425999867 -11.4212999934 -28.5532499834
246 1 -21.4149374875 -9.9936374942 -27.1255874842
1045 1 -22.8425999867 -11.4212999934 -25.697924985
208 1 -18.5596124892 -12.8489624925 -27.1255874842
247 1 -19.9872749884 -11.4212999934 -28.5532499834
248 1 -18.5596124892 -9.9936374942 -27.1255874842
1047 1 -19.9872749884 -11.4212999934 -25.697924985
210 1 -15.7042874909 -12.8489624925 -27.1255874842
249 1 -17.13194999 -11.4212999934 -28.5532499834
250 1 -15.7042874909 -9.9936374942 -27.1255874842
251 1 -14.2766249917 -11.4212999934 -28.5532499834
1049 1 -17.13194999 -11.4212999934 -25.697924985
1051 1 -14.2766249917 -11.4212999934 -25.697924985
212 1 -12.8489624925 -12.8489624925 -27.1255874842
214 1 -9.9936374942 -12.8489624925 -27.1255874842
252 1 -12.8489624925 -9.9936374942 -27.1255874842
253 1 -11.4212999934 -11.4212999934 -28.5532499834
254 1 -9.9936374942 -9.9936374942 -27.1255874842
1053 1 -11.4212999934 -11.4212999934 -25.697924985
216 1 -7.1383124958 -12.8489624925 -27.1255874842
255 1 -8.565974995 -11.4212999934 -28.5532499834
256 1 -7.1383124958 -9.9936374942 -27.1255874842
257 1 -5.7106499967 -11.4212999934 -28.5532499834
1055 1 -8.565974995 -11.4212999934 -25.697924985
1057 1 -5.7106499967 -11.4212999934 -25.697924985
218 1 -4.2829874975 -12.8489624925 -27.1255874842
258 1 -4.2829874975 -9.9936374942 -27.1255874842
259 1 -2.8553249983 -11.4212999934 -28.5532499834
1059 1 -2.8553249983 -11.4212999934 -25.697924985
220 1 -1.4276624992 -12.8489624925 -27.1255874842
222 1 1.4276624992 -12.8489624925 -27.1255874842
260 1 -1.4276624992 -9.9936374942 -27.1255874842
261 1 6.2431388035e-21 -11.4212999934 -28.5532499834
262 1 1.4276624992 -9.9936374942 -27.1255874842
1061 1 6.5281067709e-21 -11.4212999934 -25.697924985
224 1 4.2829874975 -12.8489624925 -27.1255874842
263 1 2.8553249983 -11.4212999934 -28.5532499834
264 1 4.2829874975 -9.9936374942 -27.1255874842
1063 1 2.8553249983 -11.4212999934 -25.697924985
226 1 7.1383124958 -12.8489624925 -27.1255874842
265 1 5.7106499967 -11.4212999934 -28.5532499834
266 1 7.1383124958 -9.9936374942 -27.1255874842
267 1 8.565974995 -11.4212999934 -28.5532499834
1065 1 5.7106499967 -11.4212999934 -25.697924985
1067 1 8.565974995 -11.4212999934 -25.697924985
228 1 9.9936374942 -12.8489624925 -27.1255874842
230 1 12.8489624925 -12.8489624925 -27.1255874842
268 1 9.9936374942 -9.9936374942 -27.1255874842
269 1 11.4212999934 -11.4212999934 -28.5532499834
270 1 12.8489624925 -9.9936374942 -27.1255874842
1069 1 11.4212999934 -11.4212999934 -25.697924985
232 1 15.7042874909 -12.8489624925 -27.1255874842
271 1 14.2766249917 -11.4212999934 -28.5532499834
272 1 15.7042874909 -9.9936374942 -27.1255874842
273 1 17.13194999 -11.4212999934 -28.5532499834
1071 1 14.2766249917 -11.4212999934 -25.697924985
1073 1 17.13194999 -11.4212999934 -25.697924985
234 1 18.5596124892 -12.8489624925 -27.1255874842
274 1 18.5596124892 -9.9936374942 -27.1255874842
275 1 19.9872749884 -11.4212999934 -28.5532499834
1075 1 19.9872749884 -11.4212999934 -25.697924985
236 1 21.4149374875 -12.8489624925 -27.1255874842
238 1 24.2702624859 -12.8489624925 -27.1255874842
276 1 21.4149374875 -9.9936374942 -27.1255874842
277 1 22.8425999867 -11.4212999934 -28.5532499834
278 1 24.2702624859 -9.9936374942 -27.1255874842
1077 1 22.8425999867 -11.4212999934 -25.697924985
240 1 27.1255874842 -12.8489624925 -27.1255874842
279 1 25.697924985 -11.4212999934 -28.5532499834
280 1 27.1255874842 -9.9936374942 -27.1255874842
1079 1 25.697924985 -11.4212999934 -25.697924985
281 1 -28.5532499834 -8.565974995 -28.5532499834
282 1 -27.1255874842 -7.1383124958 -27.1255874842
283 1 -25.697924985 -8.565974995 -28.5532499834
321 1 -28.5532499834 -5.7106499967 -28.5532499834
323 1 -25.697924985 -5.7106499967 -28.5532499834
1081 1 -28.5532499834 -8.565974995 -25.697924985
1083 1 -25.697924985 -8.565974995 -25.697924985
1121 1 -28.5532499834 -5.7106499967 -25.697924985
1123 1 -25.697924985 -5.7106499967 -25.697924985
284 1 -24.2702624859 -7.1383124958 -27.1255874842
285 1 -22.8425999867 -8.565974995 -28.5532499834
286 1 -21.4149374875 -7.1383124958 -27.1255874842
325 1 -22.8425999867 -5.7106499967 -28.5532499834
1085 1 -22.8425999867 -8.565974995 -25.697924985
1125 1 -22.8425999867 -5.7106499967 -25.697924985
287 1 -19.9872749884 -8.565974995 -28.5532499834
288 1 -18.5596124892 -7.1383124958 -27.1255874842
327 1 -19.9872749884 -5.7106499967 -28.5532499834
1087 1 -19.9872749884 -8.565974995 -25.697924985
1127 1 -19.9872749884 -5.7106499967 -25.697924985
289 1 -17.13194999 -8.565974995 -28.5532499834
290 1 -15.7042874909 -7.1383124958 -27.1255874842
291 1 -14.2766249917 -8.565974995 -28.5532499834
329 1 -17.13194999 -5.7106499967 -28.5532499834
331 1 -14.2766249917 -5.7106499967 -28.5532499834
1089 1 -17.13194999 -8.565974995 -25.697924985
1091 1 -14.2766249917 -8.565974995 -25.697924985
1129 1 -17.13194999 -5.7106499967 -25.697924985
1131 1 -14.2766249917 -5.7106499967 -25.697924985
292 1 -12.8489624925 -7.1383124958 -27.1255874842
293 1 -11.4212999934 -8.565974995 -28.5532499834
294 1 -9.9936374942 -7.1383124958 -27.1255874842
333 1 -11.4212999934 -5.7106499967 -28.5532499834
1093 1 -11.4212999934 -8.565974995 -25.697924985
1133 1 -11.4212999934 -5.7106499967 -25.697924985
295 1 -8.565974995 -8.565974995 -28.5532499834
296 1 -7.1383124958 -7.1383124958 -27.1255874842
297 1 -5.7106499967 -8.565974995 -28.5532499834
335 1 -8.565974995 -5.7106499967 -28.5532499834
337 1 -5.7106499967 -5.7106499967 -28.5532499834
1095 1 -8.565974995 -8.565974995 -25.697924985
1097 1 -5.7106499967 -8.565974995 -25.697924985
1135 1 -8.565974995 -5.7106499967 -25.697924985
1137 1 -5.7106499967 -5.7106499967 -25.697924985
298 1 -4.2829874975 -7.1383124958 -27.1255874842
299 1 -2.8553249983 -8.565974995 -28.5532499834
339 1 -2.8553249983 -5.7106499967 -28.5532499834
1099 1 -2.8553249983 -8.565974995 -25.697924985
1139 1 -2.8553249983 -5.7106499967 -25.697924985
300 1 -1.4276624992 -7.1383124958 -27.1255874842
301 1 6.8378545616e-21 -8.565974995 -28.5532499834
302 1 1.4276624992 -7.1383124958 -27.1255874842
341 1 6.7277220138e-21 -5.7106499967 -28.5532499834
1101 1 6.4523906443e-21 -8.565974995 -25.697924985
1141 1 6.409714282e-21 -5.7106499967 -25.697924985
303 1 2.8553249983 -8.565974995 -28.5532499834
304 1 4.2829874975 -7.1383124958 -27.1255874842
343 1 2.8553249983 -5.7106499967 -28.5532499834
1103 1 2.8553249983 -8.565974995 -25.697924985
1143 1 2.8553249983 -5.7106499967 -25.697924985
305 1 5.7106499967 -8.565974995 -28.5532499834
306 1 7.1383124958 -7.1383124958 -27.1255874842
307 1 8.565974995 -8.565974995 -28.5532499834
345 1 5.7106499967 -5.7106499967 -28.5532499834
347 1 8.565974995 -5.7106499967 -28.5532499834
1105 1 5.7106499967 -8.565974995 -25.697924985
1107 1 8.565974995 -8.565974995 -25.697924985
1145 1 5.7106499967 -5.7106499967 -25.697924985
1147 1 8.565974995 -5.7106499967 -25.697924985
308 1 9.9936374942 -7.1383124958 -27.1255874842
309 1 11.4212999934 -8.565974995 -28.5532499834
310 1 12.8489624925 -7.1383124958 -27.1255874842
349 1 11.4212999934 -5.7106499967 -28.5532499834
1109 1 11.4212999934 -8.565974995 -25.697924985
1149 1 11.4212999934 -5.7106499967 -25.697924985
311 1 14.2766249917 -8.565974995 -28.5532499834
312 1 15.7042874909 -7.1383124958 -27.1255874842
313 1 17.13194999 -8.565974995 -28.5532499834
351 1 14.2766249917 -5.7106499967 -28.5532499834
353 1 17.13194999 -5.7106499967 -28.5532499834
1111 1 14.2766249917 -8.565974995 -25.697924985
1113 1 17.13194999 -8.565974995 -25.697924985
1151 1 14.2766249917 -5.7106499967 -25.697924985
1153 1 17.13194999 -5.7106499967 -25.697924985
314 1 18.5596124892 -7.1383124958 -27.1255874842
315 1 19.9872749884 -8.565974995 -28.5532499834
355 1 19.9872749884 -5.7106499967 -28.5532499834
1115 1 19.9872749884 -8.565974995 -25.697924985
1155 1 19.9872749884 -5.7106499967 -25.697924985
316 1 21.4149374875 -7.1383124958 -27.1255874842
317 1 22.8425999867 -8.565974995 -28.5532499834
318 1 24.2702624859 -7.1383124958 -27.1255874842
357 1 22.8425999867 -5.7106499967 -28.5532499834
1117 1 22.8425999867 -8.565974995 -25.697924985
1157 1 22.8425999867 -5.7106499967 -25.697924985
319 1 25.697924985 -8.565974995 -28.5532499834
320 1 27.1255874842 -7.1383124958 -27.1255874842
359 1 25.697924985 -5.7106499967 -28.5532499834
1119 1 25.697924985 -8.565974995 -25.697924985
1159 1 25.697924985 -5.7106499967 -25.697924985
322 1 -27.1255874842 -4.2829874975 -27.1255874842
361 1 -28.5532499834 -2.8553249983 -28.5532499834
363 1 -25.697924985 -2.8553249983 -28.5532499834
1161 1 -28.5532499834 -2.8553249983 -25.697924985
1163 1 -25.697924985 -2.8553249983 -25.697924985
324 1 -24.2702624859 -4.2829874975 -27.1255874842
326 1 -21.4149374875 -4.2829874975 -27.1255874842
365 1 -22.8425999867 -2.8553249983 -28.5532499834
1165 1 -22.8425999867 -2.8553249983 -25.697924985
328 1 -18.5596124892 -4.2829874975 -27.1255874842
367 1 -19.9872749884 -2.8553249983 -28.5532499834
1167 1 -19.9872749884 -2.8553249983 -25.697924985
330 1 -15.7042874909 -4.2829874975 -27.1255874842
369 1 -17.13194999 -2.8553249983 -28.5532499834
371 1 -14.2766249917 -2.8553249983 -28.5532499834
1169 1 -17.13194999 -2.8553249983 -25.697924985
1171 1 -14.2766249917 -2.8553249983 -25.697924985
332 1 -12.8489624925 -4.2829874975 -27.1255874842
334 1 -9.9936374942 -4.2829874975 -27.1255874842
373 1 -11.4212999934 -2.8553249983 -28.5532499834
1173 1 -11.4212999934 -2.8553249983 -25.697924985
336 1 -7.1383124958 -4.2829874975 -27.1255874842
375 1 -8.565974995 -2.8553249983 -28.5532499834
377 1 -5.7106499967 -2.8553249983 -28.5532499834
1175 1 -8.565974995 -2.8553249983 -25.697924985
1177 1 -5.7106499967 -2.8553249983 -25.697924985
338 1 -4.2829874975 -4.2829874975 -27.1255874842
379 1 -2.8553249983 -2.8553249983 -28.5532499834
1179 1 -2.8553249983 -2.8553249983 -25.697924985
340 1 -1.4276624992 -4.2829874975 -27.1255874842
342 1 1.4276624992 -4.2829874975 -27.1255874842
381 1 6.6836689947e-21 -2.8553249983 -28.5532499834
1181 1 6.4537673012e-21 -2.8553249983 -25.697924985
344 1 4.2829874975 -4.2829874975 -27.1255874842
383 1 2.8553249983 -2.8553249983 -28.5532499834
1183 1 2.8553249983 -2.8553249983 -25.697924985
346 1 7.1383124958 -4.2829874975 -27.1255874842
385 1 5.7106499967 -2.8553249983 -28.5532499834
387 1 8.565974995 -2.8553249983 -28.5532499834
1185 1 5.7106499967 -2.8553249983 -25.697924985
1187 1 8.565974995 -2.8553249983 -25.697924985
348 1 9.9936374942 -4.2829874975 -27.1255874842
350 1 12.8489624925 -4.2829874975 -27.1255874842
389 1 11.4212999934 -2.8553249983 -28.5532499834
1189 1 11.4212999934 -2.8553249983 -25.697924985
352 1 15.7042874909 -4.2829874975 -27.1255874842
391 1 14.2766249917 -2.8553249983 -28.5532499834
393 1 17.13194999 -2.8553249983 -28.5532499834
1191 1 14.2766249917 -2.8553249983 -25.697924985
1193 1 17.13194999 -2.8553249983 -25.697924985
354 1 18.5596124892 -4.2829874975 -27.1255874842
395 1 19.9872749884 -2.8553249983 -28.5532499834
1195 1 19.9872749884 -2.8553249983 -25.697924985
356 1 21.4149374875 -4.2829874975 -27.1255874842
358 1 24.2702624859 -4.2829874975 -27.1255874842
397 1 22.8425999867 -2.8553249983 -28.5532499834
1197 1 22.8425999867 -2.8553249983 -25.697924985
360 1 27.1255874842 -4.2829874975 -27.1255874842
399 1 25.697924985 -2.8553249983 -28.5532499834
1199 1 25.697924985 -2.8553249983 -25.697924985
362 1 -27.1255874842 -1.4276624992 -27.1255874842
401 1 -28.5532499834 6.4317407916e-21 -28.5532499834
402 1 -27.1255874842 1.4276624992 -27.1255874842
403 1 -25.697924985 6.5793872385e-21 -28.5532499834
1201 1 -28.5532499834 6.4537673012e-21 -25.697924985
1203 1 -25.697924985 6.7638592561e-21 -25.697924985
364 1 -24.2702624859 -1.4276624992 -27.1255874842
366 1 -21.4149374875 -1.4276624992 -27.1255874842
404 1 -24.2702624859 1.4276624992 -27.1255874842
405 1 -22.8425999867 6.218014816e-21 -28.5532499834
406 1 -21.4149374875 1.4276624992 -27.1255874842
1205 1 -22.8425999867 6.245547953e-21 -25.697924985
368 1 -18.5596124892 -1.4276624992 -27.1255874842
407 1 -19.9872749884 6.0903298934e-21 -28.5532499834
408 1 -18.5596124892 1.4276624992 -27.1255874842
1207 1 -19.9872749884 6.1770592748e-21 -25.697924985
370 1 -15.7042874909 -1.4276624992 -27.1255874842
409 1 -17.13194999 6.5195026656e-21 -28.5532499834
410 1 -15.7042874909 1.4276624992 -27.1255874842
411 1 -14.2766249917 6.3942268925e-21 -28.5532499834
1209 1 -17.13194999 6.5243209646e-21 -25.697924985
1211 1 -14.2766249917 6.4899045434e-21 -25.697924985
372 1 -12.8489624925 -1.4276624992 -27.1255874842
374 1 -9.9936374942 -1.4276624992 -27.1255874842
412 1 -12.8489624925 1.4276624992 -27.1255874842
413 1 -11.4212999934 6.3773628461e-21 -28.5532499834
414 1 -9.9936374942 1.4276624992 -27.1255874842