ITEM: TIMESTEP
0
ITEM: NUMBER OF ATOMS
4631
ITEM: BOX BOUNDS pp pp pp
0.0 35.0
0.0 35.0
0.0 35.0
ITEM: ATOMS id type x y z
1 1 0.0 0.0 0.0
2 1 0.0 0.0 3.5
3 1 0.0 0.0 7.0
4 1 0.0 0.0 10.5
5 1 0.0 0.0 14.0
6 1 0.0 0.0 17.5
7 1 0.0 0.0 21.0
8 1 0.0 0.0 24.5
9 1 0.0 0.0 28.0
10 1 0.0 0.0 31.5
11 1 0.0 0.0 35.0
12 1 0.0 1.75 1.75
13 1 0.0 1.75 5.25
14 1 0.0 1.75 8.75
15 1 0.0 1.75 12.25
16 1 0.0 1.75 15.75
17 1 0.0 1.75 19.25
18 1 0.0 1.75 22.75
19 1 0.0 1.75 26.25
20 1 0.0 1.75 29.75
21 1 0.0 1.75 33.25
22 1 0.0 3.5 0.0
23 1 0.0 3.5 3.5
24 1 0.0 3.5 7.0
25 1 0.0 3.5 10.5
26 1 0.0 3.5 14.0
27 1 0.0 3.5 17.5
28 1 0.0 3.5 21.0
29 1 0.0 3.5 24.5
30 1 0.0 3.5 28.0
31 1 0.0 3.5 31.5
32 1 0.0 3.5 35.0
33 1 0.0 5.25 1.75
34 1 0.0 5.25 5.25
35 1 0.0 5.25 8.75
36 1 0.0 5.25 12.25
37 1 0.0 5.25 15.75
38 1 0.0 5.25 19.25
39 1 0.0 5.25 22.75
40 1 0.0 5.25 26.25
41 1 0.0 5.25 29.75
42 1 0.0 5.25 33.25
43 1 0.0 7.0 0.0
44 1 0.0 7.0 3.5
45 1 0.0 7.0 7.0
46 1 0.0 7.0 10.5
47 1 0.0 7.0 14.0
48 1 0.0 7.0 17.5
49 1 0.0 7.0 21.0
50 1 0.0 7.0 24.5
51 1 0.0 7.0 28.0
52 1 0.0 7.0 31.5
53 1 0.0 7.0 35.0
54 1 0.0 8.75 1.75
55 1 0.0 8.75 5.25
56 1 0.0 8.75 8.75
57 1 0.0 8.75 12.25
58 1 0.0 8.75 15.75
59 1 0.0 8.75 19.25
60 1 0.0 8.75 22.75
61 1 0.0 8.75 26.25
62 1 0.0 8.75 29.75
63 1 0.0 8.75 33.25
64 1 0.0 10.5 0.0
65 1 0.0 10.5 3.5
66 1 0.0 10.5 7.0
67 1 0.0 10.5 10.5
68 1 0.0 10.5 14.0
69 1 0.0 10.5 17.5
70 1 0.0 10.5 21.0
71 1 0.0 10.5 24.5
72 1 0.0 10.5 28.0
73 1 0.0 10.5 31.5
74 1 0.0 10.5 35.0
75 1 0.0 12.25 1.75
76 1 0.0 12.25 5.25
77 1 0.0 12.25 8.75
78 1 0.0 12.25 12.25
79 1 0.0 12.25 15.75
80 1 0.0 12.25 19.25
81 1 0.0 12.25 22.75
82 1 0.0 12.25 26.25
83 1 0.0 12.25 29.75
84 1 0.0 12.25 33.25
85 1 0.0 14.0 0.0
86 1 0.0 14.0 3.5
87 1 0.0 14.0 7.0
88 1 0.0 14.0 10.5
89 1 0.0 14.0 14.0
90 1 0.0 14.0 17.5
91 1 0.0 14.0 21.0
92 1 0.0 14.0 24.5
93 1 0.0 14.0 28.0
94 1 0.0 14.0 31.5
95 1 0.0 14.0 35.0
96 1 0.0 15.75 1.75
97 1 0.0 15.75 5.25
98 1 0.0 15.75 8.75
99 1 0.0 15.75 12.25
100 1 0.0 15.75 15.75
101 1 0.0 15.75 19.25
102 1 0.0 15.75 22.75
103 1 0.0 15.75 26.25
104 1 0.0 15.75 29.75
105 1 0.0 15.75 33.25
106 1 0.0 17.5 0.0
107 1 0.0 17.5 3.5
108 1 0.0 17.5 7.0
109 1 0.0 17.5 10.5
110 1 0.0 17.5 14.0
111 1 0.0 17.5 17.5
112 1 0.0 17.5 21.0
113 1 0.0 17.5 24.5
114 1 0.0 17.5 28.0
115 1 0.0 17.5 31.5
116 1 0.0 17.5 35.0
117 1 0.0 19.25 1.75
118 1 0.0 19.25 5.25
119 1 0.0 19.25 8.75
120 1 0.0 19.25 12.25
121 1 0.0 19.25 15.75
122 1 0.0 19.25 19.25
123 1 0.0 19.25 22.75
124 1 0.0 19.25 26.25
125 1 0.0 19.25 29.75
126 1 0.0 19.25 33.25
127 1 0.0 21.0 0.0
128 1 0.0 21.0 3.5
129 1 0.0 21.0 7.0
130 1 0.0 21.0 10.5
131 1 0.0 21.0 14.0
132 1 0.0 21.0 17.5
133 1 0.0 21.0 21.0
134 1 0.0 21.0 24.5
135 1 0.0 21.0 28.0
136 1 0.0 21.0 31.5
137 1 0.0 21.0 35.0
138 1 0.0 22.75 1.75
139 1 0.0 22.75 5.25
140 1 0.0 22.75 8.75
141 1 0.0 22.75 12.25
142 1 0.0 22.75 15.75
143 1 0.0 22.75 19.25
144 1 0.0 22.75 22.75
145 1 0.0 22.75 26.25
146 1 0.0 22.75 29.75
147 1 0.0 22.75 33.25
148 1 0.0 24.5 0.0
149 1 0.0 24.5 3.5
150 1 0.0 24.5 7.0
151 1 0.0 24.5 10.5
152 1 0.0 24.5 14.0
153 1 0.0 24.5 17.5
154 1 0.0 24.5 21.0
155 1 0.0 24.5 24.5
156 1 0.0 24.5 28.0
157 1 0.0 24.5 31.5
158 1 0.0 24.5 35.0
159 1 0.0 26.25 1.75
160 1 0.0 26.25 5.25
161 1 0.0 26.25 8.75
162 1 0.0 26.25 12.25
163 1 0.0 26.25 15.75
164 1 0.0 26.25 19.25
165 1 0.0 26.25 22.75
166 1 0.0 26.25 26.25
167 1 0.0 26.25 29.75
168 1 0.0 26.25 33.25
169 1 0.0 28.0 0.0
170 1 0.0 28.0 3.5
171 1 0.0 28.0 7.0
172 1 0.0 28.0 10.5
173 1 0.0 28.0 14.0
174 1 0.0 28.0 17.5
175 1 0.0 28.0 21.0
176 1 0.0 28.0 24.5
177 1 0.0 28.0 28.0
178 1 0.0 28.0 31.5
179 1 0.0 28.0 35.0
180 1 0.0 29.75 1.75
181 1 0.0 29.75 5.25
182 1 0.0 29.75 8.75
183 1 0.0 29.75 12.25
184 1 0.0 29.75 15.75
185 1 0.0 29.75 19.25
186 1 0.0 29.75 22.75
187 1 0.0 29.75 26.25
188 1 0.0 29.75 29.75
189 1 0.0 29.75 33.25
190 1 0.0 31.5 0.0
191 1 0.0 31.5 3.5
192 1 0.0 31.5 7.0
193 1 0.0 31.5 10.5
194 1 0.0 31.5 14.0
195 1 0.0 31.5 17.5
196 1 0.0 31.5 21.0
197 1 0.0 31.5 24.5
198 1 0.0 31.5 28.0
199 1 0.0 31.5 31.5
200 1 0.0 31.5 35.0
201 1 0.0 33.25 1.75
202 1 0.0 33.25 5.25
203 1 0.0 33.25 8.75
204 1 0.0 33.25 12.25
205 1 0.0 33.25 15.75
206 1 0.0 33.25 19.25
207 1 0.0 33.25 22.75
208 1 0.0 33.25 26.25
209 1 0.0 33.25 29.75
210 1 0.0 33.25 33.25
211 1 0.0 35.0 0.0
212 1 0.0 35.0 3.5
213 1 0.0 35.0 7.0
214 1 0.0 35.0 10.5
215 1 0.0 35.0 14.0
216 1 0.0 35.0 17.5
217 1 0.0 35.0 21.0
218 1 0.0 35.0 24.5
219 1 0.0 35.0 28.0
220 1 0.0 35.0 31.5
221 1 0.0 35.0 35.0
222 1 1.75 0.0 1.75
223 1 1.75 0.0 5.25
224 1 1.75 0.0 8.75
225 1 1.75 0.0 12.25
226 1 1.75 0.0 15.75
227 1 1.75 0.0 19.25
228 1 1.75 0.0 22.75
229 1 1.75 0.0 26.25
230 1 1.75 0.0 29.75
231 1 1.75 0.0 33.25
232 1 1.75 1.75 0.0
233 1 1.75 1.75 3.5
234 1 1.75 1.75 7.0
235 1 1.75 1.75 10.5
236 1 1.75 1.75 14.0
237 1 1.75 1.75 17.5
238 1 1.75 1.75 21.0
239 1 1.75 1.75 24.5
240 1 1.75 1.75 28.0
241 1 1.75 1.75 31.5
242 1 1.75 1.75 35.0
243 1 1.75 3.5 1.75
244 1 1.75 3.5 5.25
245 1 1.75 3.5 8.75
246 1 1.75 3.5 12.25
247 1 1.75 3.5 15.75
248 1 1.75 3.5 19.25
249 1 1.75 3.5 22.75
250 1 1.75 3.5 26.25
251 1 1.75 3.5 29.75
252 1 1.75 3.5 33.25
253 1 1.75 5.25 0.0
254 1 1.75 5.25 3.5
255 1 1.75 5.25 7.0
256 1 1.75 5.25 10.5
257 1 1.75 5.25 14.0
258 1 1.75 5.25 17.5
259 1 1.75 5.25 21.0
260 1 1.75 5.25 24.5
261 1 1.75 5.25 28.0
262 1 1.75 5.25 31.5
263 1 1.75 5.25 35.0
264 1 1.75 7.0 1.75
265 1 1.75 7.0 5.25
266 1 1.75 7.0 8.75
267 1 1.75 7.0 12.25
268 1 1.75 7.0 15.75
269 1 1.75 7.0 19.25
270 1 1.75 7.0 22.75
271 1 1.75 7.0 26.25
272 1 1.75 7.0 29.75
273 1 1.75 7.0 33.25
274 1 1.75 8.75 0.0
275 1 1.75 8.75 3.5
276 1 1.75 8.75 7.0
277 1 1.75 8.75 10.5
278 1 1.75 8.75 14.0
279 1 1.75 8.75 17.5
280 1 1.75 8.75 21.0
281 1 1.75 8.75 24.5
282 1 1.75 8.75 28.0
283 1 1.75 8.75 31.5
284 1 1.75 8.75 35.0
285 1 1.75 10.5 1.75
286 1 1.75 10.5 5.25
287 1 1.75 10.5 8.75
288 1 1.75 10.5 12.25
289 1 1.75 10.5 15.75
290 1 1.75 10.5 19.25
291 1 1.75 10.5 22.75
292 1 1.75 10.5 26.25
293 1 1.75 10.5 29.75
294 1 1.75 10.5 33.25
295 1 1.75 12.25 0.0
296 1 1.75 12.25 3.5
297 1 1.75 12.25 7.0
298 1 1.75 12.25 10.5
299 1 1.75 12.25 14.0
300 1 1.75 12.25 17.5
301 1 1.75 12.25 21.0
302 1 1.75 12.25 24.5
303 1 1.75 12.25 28.0
304 1 1.75 12.25 31.5
305 1 1.75 12.25 35.0
306 1 1.75 14.0 1.75
307 1 1.75 14.0 5.25
308 1 1.75 14.0 8.75
309 1 1.75 14.0 12.25
310 1 1.75 14.0 15.75
311 1 1.75 14.0 19.25
312 1 1.75 14.0 22.75
313 1 1.75 14.0 26.25
314 1 1.75 14.0 29.75
315 1 1.75 14.0 33.25
316 1 1.75 15.75 0.0
317 1 1.75 15.75 3.5
318 1 1.75 15.75 7.0
319 1 1.75 15.75 10.5
320 1 1.75 15.75 14.0
321 1 1.75 15.75 17.5
322 1 1.75 15.75 21.0
323 1 1.75 15.75 24.5
324 1 1.75 15.75 28.0
325 1 1.75 15.75 31.5
326 1 1.75 15.75 35.0
327 1 1.75 17.5 1.75
328 1 1.75 17.5 5.25
329 1 1.75 17.5 8.75
330 1 1.75 17.5 12.25
331 1 1.75 17.5 15.75
332 1 1.75 17.5 19.25
333 1 1.75 17.5 22.75
334 1 1.75 17.5 26.25
335 1 1.75 17.5 29.75
336 1 1.75 17.5 33.25
337 1 1.75 19.25 0.0
338 1 1.75 19.25 3.5
339 1 1.75 19.25 7.0
340 1 1.75 19.25 10.5
341 1 1.75 19.25 14.0
342 1 1.75 19.25 17.5
343 1 1.75 19.25 21.0
344 1 1.75 19.25 24.5
345 1 1.75 19.25 28.0
346 1 1.75 19.25 31.5
347 1 1.75 19.25 35.0
348 1 1.75 21.0 1.75
349 1 1.75 21.0 5.25
350 1 1.75 21.0 8.75
351 1 1.75 21.0 12.25
352 1 1.75 21.0 15.75
353 1 1.75 21.0 19.25
354 1 1.75 21.0 22.75
355 1 1.75 21.0 26.25
356 1 1.75 21.0 29.75
357 1 1.75 21.0 33.25
358 1 1.75 22.75 0.0
359 1 1.75 22.75 3.5
360 1 1.75 22.75 7.0
361 1 1.75 22.75 10.5
362 1 1.75 22.75 14.0
363 1 1.75 22.75 17.5
364 1 1.75 22.75 21.0
365 1 1.75 22.75 24.5
366 1 1.75 22.75 28.0
367 1 1.75 22.75 31.5
368 1 1.75 22.75 35.0
369 1 1.75 24.5 1.75
370 1 1.75 24.5 5.25
371 1 1.75 24.5 8.75
372 1 1.75 24.5 12.25
373 1 1.75 24.5 15.75
374 1 1.75 24.5 19.25
375 1 1.75 24.5 22.75
376 1 1.75 24.5 26.25
377 1 1.75 24.5 29.75
378 1 1.75 24.5 33.25
379 1 1.75 26.25 0.0
380 1 1.75 26.25 3.5
381 1 1.75 26.25 7.0
382 1 1.75 26.25 10.5
383 1 1.75 26.25 14.0
384 1 1.75 26.25 17.5
385 1 1.75 26.25 21.0
386 1 1.75 26.25 24.5
387 1 1.75 26.25 28.0
388 1 1.75 26.25 31.5
389 1 1.75 26.25 35.0
390 1 1.75 28.0 1.75
391 1 1.75 28.0 5.25
392 1 1.75 28.0 8.75
393 1 1.75 28.0 12.25
394 1 1.75 28.0 15.75
395 1 1.75 28.0 19.25
396 1 1.75 28.0 22.75
397 1 1.75 28.0 26.25
398 1 1.75 28.0 29.75
399 1 1.75 28.0 33.25
400 1 1.75 29.75 0.0
401 1 1.75 29.75 3.5
402 1 1.75 29.75 7.0
403 1 1.75 29.75 10.5
404 1 1.75 29.75 14.0
405 1 1.75 29.75 17.5
406 1 1.75 29.75 21.0
407 1 1.75 29.75 24.5
408 1 1.75 29.75 28.0
409 1 1.75 29.75 31.5
410 1 1.75 29.75 35.0
411 1 1.75 31.5 1.75
412 1 1.75 31.5 5.25
413 1 1.75 31.5 8.75
414 1 1.75 31.5 12.25
415 1 1.75 31.5 15.75
416 1 1.75 31.5 19.25
417 1 1.75 31.5 22.75
418 1 1.75 31.5 26.25
419 1 1.75 31.5 29.75
420 1 1.75 31.5 33.25
421 1 1.75 33.25 0.0
422 1 1.75 33.25 3.5
423 1 1.75 33.25 7.0
424 1 1.75 33.25 10.5
425 1 1.75 33.25 14.0
426 1 1.75 33.25 17.5
427 1 1.75 33.25 21.0
428 1 1.75 33.25 24.5
429 1 1.75 33.25 28.0
430 1 1.75 33.25 31.5
431 1 1.75 33.25 35.0
432 1 1.75 35.0 1.75
433 1 1.75 35.0 5.25
434 1 1.75 35.0 8.75
435 1 1.75 35.0 12.25
436 1 1.75 35.0 15.75
437 1 1.75 35.0 19.25
438 1 1.75 35.0 22.75
439 1 1.75 35.0 26.25
440 1 1.75 35.0 29.75
441 1 1.75 35.0 33.25
442 1 3.5 0.0 0.0
443 1 3.5 0.0 3.5
444 1 3.5 0.0 7.0
445 1 3.5 0.0 10.5
446 1 3.5 0.0 14.0
447 1 3.5 0.0 17.5
448 1 3.5 0.0 21.0
449 1 3.5 0.0 24.5
450 1 3.5 0.0 28.0
451 1 3.5 0.0 31.5
452 1 3.5 0.0 35.0
453 1 3.5 1.75 1.75
454 1 3.5 1.75 5.25
455 1 3.5 1.75 8.75
456 1 3.5 1.75 12.25
457 1 3.5 1.75 15.75
458 1 3.5 1.75 19.25
459 1 3.5 1.75 22.75
460 1 3.5 1.75 26.25
461 1 3.5 1.75 29.75
462 1 3.5 1.75 33.25
463 1 3.5 3.5 0.0
464 1 3.5 3.5 3.5
465 1 3.5 3.5 7.0
466 1 3.5 3.5 10.5
467 1 3.5 3.5 14.0
468 1 3.5 3.5 17.5
469 1 3.5 3.5 21.0
470 1 3.5 3.5 24.5
471 1 3.5 3.5 28.0
472 1 3.5 3.5 31.5
473 1 3.5 3.5 35.0
474 1 3.5 5.25 1.75
475 1 3.5 5.25 5.25
476 1 3.5 5.25 8.75
477 1 3.5 5.25 12.25
478 1 3.5 5.25 15.75
479 1 3.5 5.25 19.25
480 1 3.5 5.25 22.75
481 1 3.5 5.25 26.25
482 1 3.5 5.25 29.75
483 1 3.5 5.25 33.25
484 1 3.5 7.0 0.0
485 1 3.5 7.0 3.5
486 1 3.5 7.0 7.0
487 1 3.5 7.0 10.5
488 1 3.5 7.0 14.0
489 1 3.5 7.0 17.5
490 1 3.5 7.0 21.0
491 1 3.5 7.0 24.5
492 1 3.5 7.0 28.0
493 1 3.5 7.0 31.5
494 1 3.5 7.0 35.0
495 1 3.5 8.75 1.75
496 1 3.5 8.75 5.25
497 1 3.5 8.75 8.75
498 1 3.5 8.75 12.25
499 1 3.5 8.75 15.75
500 1 3.5 8.75 19.25
501 1 3.5 8.75 22.75
502 1 3.5 8.75 26.25
503 1 3.5 8.75 29.75
504 1 3.5 8.75 33.25
505 1 3.5 10.5 0.0
506 1 3.5 10.5 3.5
507 1 3.5 10.5 7.0
508 1 3.5 10.5 10.5
509 1 3.5 10.5 14.0
510 1 3.5 10.5 17.5
511 1 3.5 10.5 21.0
512 1 3.5 10.5 24.5
513 1 3.5 10.5 28.0
514 1 3.5 10.5 31.5
515 1 3.5 10.5 35.0
516 1 3.5 12.25 1.75
517 1 3.5 12.25 5.25
518 1 3.5 12.25 8.75
519 1 3.5 12.25 12.25
520 1 3.5 12.25 15.75
521 1 3.5 12.25 19.25
522 1 3.5 12.25 22.75
523 1 3.5 12.25 26.25
524 1 3.5 12.25 29.75
525 1 3.5 12.25 33.25
526 1 3.5 14.0 0.0
527 1 3.5 14.0 3.5
528 1 3.5 14.0 7.0
529 1 3.5 14.0 10.5
530 1 3.5 14.0 14.0
531 1 3.5 14.0 17.5
532 1 3.5 14.0 21.0
533 1 3.5 14.0 24.5
534 1 3.5 14.0 28.0
535 1 3.5 14.0 31.5
536 1 3.5 14.0 35.0
537 1 3.5 15.75 1.75
538 1 3.5 15.75 5.25
539 1 3.5 15.75 8.75
540 1 3.5 15.75 12.25
541 1 3.5 15.75 15.75
542 1 3.5 15.75 19.25
543 1 3.5 15.75 22.75
544 1 3.5 15.75 26.25
545 1 3.5 15.75 29.75
546 1 3.5 15.75 33.25
547 1 3.5 17.5 0.0
548 1 3.5 17.5 3.5
549 1 3.5 17.5 7.0
550 1 3.5 17.5 10.5
551 1 3.5 17.5 14.0
552 1 3.5 17.5 17.5
553 1 3.5 17.5 21.0
554 1 3.5 17.5 24.5
555 1 3.5 17.5 28.0
556 1 3.5 17.5 31.5
557 1 3.5 17.5 35.0
558 1 3.5 19.25 1.75
559 1 3.5 19.25 5.25
560 1 3.5 19.25 8.75
561 1 3.5 19.25 12.25
562 1 3.5 19.25 15.75
563 1 3.5 19.25 19.25
564 1 3.5 19.25 22.75
565 1 3.5 19.25 26.25
566 1 3.5 19.25 29.75
567 1 3.5 19.25 33.25
568 1 3.5 21.0 0.0
569 1 3.5 21.0 3.5
570 1 3.5 21.0 7.0
571 1 3.5 21.0 10.5
572 1 3.5 21.0 14.0
573 1 3.5 21.0 17.5
574 1 3.5 21.0 21.0
575 1 3.5 21.0 24.5
576 1 3.5 21.0 28.0
577 1 3.5 21.0 31.5
578 1 3.5 21.0 35.0
579 1 3.5 22.75 1.75
580 1 3.5 22.75 5.25
581 1 3.5 22.75 8.75
582 1 3.5 22.75 12.25
583 1 3.5 22.75 15.75
584 1 3.5 22.75 19.25
585 1 3.5 22.75 22.75
586 1 3.5 22.75 26.25
587 1 3.5 22.75 29.75
588 1 3.5 22.75 33.25
589 1 3.5 24.5 0.0
590 1 3.5 24.5 3.5
591 1 3.5 24.5 7.0
592 1 3.5 24.5 10.5
593 1 3.5 24.5 14.0
594 1 3.5 24.5 17.5
595 1 3.5 24.5 21.0
596 1 3.5 24.5 24.5
597 1 3.5 24.5 28.0
598 1 3.5 24.5 31.5
599 1 3.5 24.5 35.0
600 1 3.5 26.25 1.75
601 1 3.5 26.25 5.25
602 1 3.5 26.25 8.75
603 1 3.5 26.25 12.25
604 1 3.5 26.25 15.75
605 1 3.5 26.25 19.25
606 1 3.5 26.25 22.75
607 1 3.5 26.25 26.25
608 1 3.5 26.25 29.75
609 1 3.5 26.25 33.25
610 1 3.5 28.0 0.0
611 1 3.5 28.0 3.5
612 1 3.5 28.0 7.0
613 1 3.5 28.0 10.5
614 1 3.5 28.0 14.0
615 1 3.5 28.0 17.5
616 1 3.5 28.0 21.0
617 1 3.5 28.0 24.5
618 1 3.5 28.0 28.0
619 1 3.5 28.0 31.5
620 1 3.5 28.0 35.0
621 1 3.5 29.75 1.75
622 1 3.5 29.75 5.25
623 1 3.5 29.75 8.75
624 1 3.5 29.75 12.25
625 1 3.5 29.75 15.75
626 1 3.5 29.75 19.25
627 1 3.5 29.75 22.75
628 1 3.5 29.75 26.25
629 1 3.5 29.75 29.75
630 1 3.5 29.75 33.25
631 1 3.5 31.5 0.0
632 1 3.5 31.5 3.5
633 1 3.5 31.5 7.0
634 1 3.5 31.5 10.5
635 1 3.5 31.5 14.0
636 1 3.5 31.5 17.5
637 1 3.5 31.5 21.0
638 1 3.5 31.5 24.5
639 1 3.5 31.5 28.0
640 1 3.5 31.5 31.5
641 1 3.5 31.5 35.0
642 1 3.5 33.25 1.75
643 1 3.5 33.25 5.25
644 1 3.5 33.25 8.75
645 1 3.5 33.25 12.25
646 1 3.5 33.25 15.75
647 1 3.5 33.25 19.25
648 1 3.5 33.25 22.75
649 1 3.5 33.25 26.25
650 1 3.5 33.25 29.75
651 1 3.5 33.25 33.25
652 1 3.5 35.0 0.0
653 1 3.5 35.0 3.5
654 1 3.5 35.0 7.0
655 1 3.5 35.0 10.5
656 1 3.5 35.0 14.0
657 1 3.5 35.0 17.5
658 1 3.5 35.0 21.0
659 1 3.5 35.0 24.5
660 1 3.5 35.0 28.0
661 1 3.5 35.0 31.5
662 1 3.5 35.0 35.0
663 1 5.25 0.0 1.75
664 1 5.25 0.0 5.25
665 1 5.25 0.0 8.75
666 1 5.25 0.0 12.25
667 1 5.25 0.0 15.75
668 1 5.25 0.0 19.25
669 1 5.25 0.0 22.75
670 1 5.25 0.0 26.25
671 1 5.25 0.0 29.75
672 1 5.25 0.0 33.25
673 1 5.25 1.75 0.0
674 1 5.25 1.75 3.5
675 1 5.25 1.75 7.0
676 1 5.25 1.75 10.5
677 1 5.25 1.75 14.0
678 1 5.25 1.75 17.5
679 1 5.25 1.75 21.0
680 1 5.25 1.75 24.5
681 1 5.25 1.75 28.0
682 1 5.25 1.75 31.5
683 1 5.25 1.75 35.0
684 1 5.25 3.5 1.75
685 1 5.25 3.5 5.25
686 1 5.25 3.5 8.75
687 1 5.25 3.5 12.25
688 1 5.25 3.5 15.75
689 1 5.25 3.5 19.25
690 1 5.25 3.5 22.75
691 1 5.25 3.5 26.25
692 1 5.25 3.5 29.75
693 1 5.25 3.5 33.25
694 1 5.25 5.25 0.0
695 1 5.25 5.25 3.5
696 1 5.25 5.25 7.0
697 1 5.25 5.25 10.5
698 1 5.25 5.25 14.0
699 1 5.25 5.25 17.5
700 1 5.25 5.25 21.0
701 1 5.25 5.25 24.5
702 1 5.25 5.25 28.0
703 1 5.25 5.25 31.5
704 1 5.25 5.25 35.0
705 1 5.25 7.0 1.75
706 1 5.25 7.0 5.25
707 1 5.25 7.0 8.75
708 1 5.25 7.0 12.25
709 1 5.25 7.0 15.75
710 1 5.25 7.0 19.25
711 1 5.25 7.0 22.75
712 1 5.25 7.0 26.25
713 1 5.25 7.0 29.75
714 1 5.25 7.0 33.25
715 1 5.25 8.75 0.0
716 1 5.25 8.75 3.5
717 1 5.25 8.75 7.0
718 1 5.25 8.75 10.5
719 1 5.25 8.75 14.0
720 1 5.25 8.75 17.5
721 1 5.25 8.75 21.0
722 1 5.25 8.75 24.5
723 1 5.25 8.75 28.0
724 1 5.25 8.75 31.5
725 1 5.25 8.75 35.0
726 1 5.25 10.5 1.75
727 1 5.25 10.5 5.25
728 1 5.25 10.5 8.75
729 1 5.25 10.5 12.25
730 1 5.25 10.5 15.75
731 1 5.25 10.5 19.25
732 1 5.25 10.5 22.75
733 1 5.25 10.5 26.25
734 1 5.25 10.5 29.75
735 1 5.25 10.5 33.25
736 1 5.25 12.25 0.0
737 1 5.25 12.25 3.5
738 1 5.25 12.25 7.0
739 1 5.25 12.25 10.5
740 1 5.25 12.25 14.0
741 1 5.25 12.25 17.5
742 1 5.25 12.25 21.0
743 1 5.25 12.25 24.5
744 1 5.25 12.25 28.0
745 1 5.25 12.25 31.5
746 1 5.25 12.25 35.0
747 1 5.25 14.0 1.75
748 1 5.25 14.0 5.25
749 1 5.25 14.0 8.75
750 1 5.25 14.0 12.25
751 1 5.25 14.0 15.75
752 1 5.25 14.0 19.25
753 1 5.25 14.0 22.75
754 1 5.25 14.0 26.25
755 1 5.25 14.0 29.75
756 1 5.25 14.0 33.25
757 1 5.25 15.75 0.0
758 1 5.25 15.75 3.5
759 1 5.25 15.75 7.0
760 1 5.25 15.75 10.5
761 1 5.25 15.75 14.0
762 1 5.25 15.75 17.5
763 1 5.25 15.75 21.0
764 1 5.25 15.75 24.5
765 1 5.25 15.75 28.0
766 1 5.25 15.75 31.5
767 1 5.25 15.75 35.0
768 1 5.25 17.5 1.75
769 1 5.25 17.5 5.25
770 1 5.25 17.5 8.75
771 1 5.25 17.5 12.25
772 1 5.25 17.5 15.75
773 1 5.25 17.5 19.25
774 1 5.25 17.5 22.75
775 1 5.25 17.5 26.25
776 1 5.25 17.5 29.75
777 1 5.25 17.5 33.25
778 1 5.25 19.25 0.0
779 1 5.25 19.25 3.5
780 1 5.25 19.25 7.0
781 1 5.25 19.25 10.5
782 1 5.25 19.25 14.0
783 1 5.25 19.25 17.5
784 1 5.25 19.25 21.0
785 1 5.25 19.25 24.5
786 1 5.25 19.25 28.0
787 1 5.25 19.25 31.5
788 1 5.25 19.25 35.0
789 1 5.25 21.0 1.75
790 1 5.25 21.0 5.25
791 1 5.25 21.0 8.75
792 1 5.25 21.0 12.25
793 1 5.25 21.0 15.75
794 1 5.25 21.0 19.25
795 1 5.25 21.0 22.75
796 1 5.25 21.0 26.25
797 1 5.25 21.0 29.75
798 1 5.25 21.0 33.25
799 1 5.25 22.75 0.0
800 1 5.25 22.75 3.5
801 1 5.25 22.75 7.0
802 1 5.25 22.75 10.5
803 1 5.25 22.75 14.0
804 1 5.25 22.75 17.5
805 1 5.25 22.75 21.0
806 1 5.25 22.75 24.5
807 1 5.25 22.75 28.0
808 1 5.25 22.75 31.5
809 1 5.25 22.75 35.0
810 1 5.25 24.5 1.75
811 1 5.25 24.5 5.25
812 1 5.25 24.5 8.75
813 1 5.25 24.5 12.25
814 1 5.25 24.5 15.75
815 1 5.25 24.5 19.25
816 1 5.25 24.5 22.75
817 1 5.25 24.5 26.25
818 1 5.25 24.5 29.75
819 1 5.25 24.5 33.25
820 1 5.25 26.25 0.0
821 1 5.25 26.25 3.5
822 1 5.25 26.25 7.0
823 1 5.25 26.25 10.5
824 1 5.25 26.25 14.0
825 1 5.25 26.25 17.5
826 1 5.25 26.25 21.0
827 1 5.25 26.25 24.5
828 1 5.25 26.25 28.0
829 1 5.25 26.25 31.5
830 1 5.25 26.25 35.0
831 1 5.25 28.0 1.75
832 1 5.25 28.0 5.25
833 1 5.25 28.0 8.75
834 1 5.25 28.0 12.25
835 1 5.25 28.0 15.75
836 1 5.25 28.0 19.25
837 1 5.25 28.0 22.75
838 1 5.25 28.0 26.25
839 1 5.25 28.0 29.75
840 1 5.25 28.0 33.25
841 1 5.25 29.75 0.0
842 1 5.25 29.75 3.5
843 1 5.25 29.75 7.0
844 1 5.25 29.75 10.5
845 1 5.25 29.75 14.0
846 1 5.25 29.75 17.5
847 1 5.25 29.75 21.0
848 1 5.25 29.75 24.5
849 1 5.25 29.75 28.0
850 1 5.25 29.75 31.5
851 1 5.25 29.75 35.0
852 1 5.25 31.5 1.75
853 1 5.25 31.5 5.25
854 1 5.25 31.5 8.75
855 1 5.25 31.5 12.25
856 1 5.25 31.5 15.75
857 1 5.25 31.5 19.25
858 1 5.25 31.5 22.75
859 1 5.25 31.5 26.25
860 1 5.25 31.5 29.75
861 1 5.25 31.5 33.25
862 1 5.25 33.25 0.0
863 1 5.25 33.25 3.5
864 1 5.25 33.25 7.0
865 1 5.25 33.25 10.5
866 1 5.25 33.25 14.0
867 1 5.25 33.25 17.5
868 1 5.25 33.25 21.0
869 1 5.25 33.25 24.5
870 1 5.25 33.25 28.0
871 1 5.25 33.25 31.5
872 1 5.25 33.25 35.0
873 1 5.25 35.0 1.75
874 1 5.25 35.0 5.25
875 1 5.25 35.0 8.75
876 1 5.25 35.0 12.25
877 1 5.25 35.0 15.75
878 1 5.25 35.0 19.25
879 1 5.25 35.0 22.75
880 1 5.25 35.0 26.25
881 1 5.25 35.0 29.75
882 1 5.25 35.0 33.25
883 1 7.0 0.0 0.0
884 1 7.0 0.0 3.5
885 1 7.0 0.0 7.0
886 1 7.0 0.0 10.5
887 1 7.0 0.0 14.0
888 1 7.0 0.0 17.5
889 1 7.0 0.0 21.0
890 1 7.0 0.0 24.5
891 1 7.0 0.0 28.0
892 1 7.0 0.0 31.5
893 1 7.0 0.0 35.0
894 1 7.0 1.75 1.75
895 1 7.0 1.75 5.25
896 1 7.0 1.75 8.75
897 1 7.0 1.75 12.25
898 1 7.0 1.75 15.75
899 1 7.0 1.75 19.25
900 1 7.0 1.75 22.75
901 1 7.0 1.75 26.25
902 1 7.0 1.75 29.75
903 1 7.0 1.75 33.25
904 1 7.0 3.5 0.0
905 1 7.0 3.5 3.5
906 1 7.0 3.5 7.0
907 1 7.0 3.5 10.5
908 1 7.0 3.5 14.0
909 1 7.0 3.5 17.5
910 1 7.0 3.5 21.0
911 1 7.0 3.5 24.5
912 1 7.0 3.5 28.0
913 1 7.0 3.5 31.5
914 1 7.0 3.5 35.0
915 1 7.0 5.25 1.75
916 1 7.0 5.25 5.25
917 1 7.0 5.25 8.75
918 1 7.0 5.25 12.25
919 1 7.0 5.25 15.75
920 1 7.0 5.25 19.25
921 1 7.0 5.25 22.75
922 1 7.0 5.25 26.25
923 1 7.0 5.25 29.75
924 1 7.0 5.25 33.25
925 1 7.0 7.0 0.0
926 1 7.0 7.0 3.5
927 1 7.0 7.0 7.0
928 1 7.0 7.0 10.5
929 1 7.0 7.0 14.0
930 1 7.0 7.0 17.5
931 1 7.0 7.0 21.0
932 1 7.0 7.0 24.5
933 1 7.0 7.0 28.0
934 1 7.0 7.0 31.5
935 1 7.0 7.0 35.0
936 1 7.0 8.75 1.75
937 1 7.0 8.75 5.25
938 1 7.0 8.75 8.75
939 1 7.0 8.75 12.25
940 1 7.0 8.75 15.75
941 1 7.0 8.75 19.25
942 1 7.0 8.75 22.75
943 1 7.0 8.75 26.25
944 1 7.0 8.75 29.75
945 1 7.0 8.75 33.25
946 1 7.0 10.5 0.0
947 1 7.0 10.5 3.5
948 1 7.0 10.5 7.0
949 1 7.0 10.5 10.5
950 1 7.0 10.5 14.0
951 1 7.0 10.5 17.5
952 1 7.0 10.5 21.0
953 1 7.0 10.5 24.5
954 1 7.0 10.5 28.0
955 1 7.0 10.5 31.5
956 1 7.0 10.5 35.0
957 1 7.0 12.25 1.75
958 1 7.0 12.25 5.25
959 1 7.0 12.25 8.75
960 1 7.0 12.25 12.25
961 1 7.0 12.25 15.75
962 1 7.0 12.25 19.25
963 1 7.0 12.25 22.75
964 1 7.0 12.25 26.25
965 1 7.0 12.25 29.75
966 1 7.0 12.25 33.25
967 1 7.0 14.0 0.0
968 1 7.0 14.0 3.5
969 1 7.0 14.0 7.0
970 1 7.0 14.0 10.5
971 1 7.0 14.0 14.0
972 1 7.0 14.0 17.5
973 1 7.0 14.0 21.0
974 1 7.0 14.0 24.5
975 1 7.0 14.0 28.0
976 1 7.0 14.0 31.5
977 1 7.0 14.0 35.0
978 1 7.0 15.75 1.75
979 1 7.0 15.75 5.25
980 1 7.0 15.75 8.75
981 1 7.0 15.75 12.25
982 1 7.0 15.75 15.75
983 1 7.0 15.75 19.25
984 1 7.0 15.75 22.75
985 1 7.0 15.75 26.25
986 1 7.0 15.75 29.75
987 1 7.0 15.75 33.25
988 1 7.0 17.5 0.0
989 1 7.0 17.5 3.5
990 1 7.0 17.5 7.0
991 1 7.0 17.5 10.5
992 1 7.0 17.5 14.0
993 1 7.0 17.5 17.5
994 1 7.0 17.5 21.0
995 1 7.0 17.5 24.5
996 1 7.0 17.5 28.0
997 1 7.0 17.5 31.5
998 1 7.0 17.5 35.0
999 1 7.0 19.25 1.75
1000 1 7.0 19.25 5.25
1001 1 7.0 19.25 8.75
1002 1 7.0 19.25 12.25
1003 1 7.0 19.25 15.75
1004 1 7.0 19.25 19.25
1005 1 7.0 19.25 22.75
1006 1 7.0 19.25 26.25
1007 1 7.0 19.25 29.75
1008 1 7.0 19.25 33.25
1009 1 7.0 21.0 0.0
1010 1 7.0 21.0 3.5
1011 1 7.0 21.0 7.0
1012 1 7.0 21.0 10.5
1013 1 7.0 21.0 14.0
1014 1 7.0 21.0 17.5
1015 1 7.0 21.0 21.0
1016 1 7.0 21.0 24.5
1017 1 7.0 21.0 28.0
1018 1 7.0 21.0 31.5
1019 1 7.0 21.0 35.0
1020 1 7.0 22.75 1.75
1021 1 7.0 22.75 5.25
1022 1 7.0 22.75 8.75
1023 1 7.0 22.75 12.25
1024 1 7.0 22.75 15.75
1025 1 7.0 22.75 19.25
1026 1 7.0 22.75 22.75
1027 1 7.0 22.75 26.25
1028 1 7.0 22.75 29.75
1029 1 7.0 22.75 33.25
1030 1 7.0 24.5 0.0
1031 1 7.0 24.5 3.5
1032 1 7.0 24.5 7.0
1033 1 7.0 24.5 10.5
1034 1 7.0 24.5 14.0
1035 1 7.0 24.5 17.5
1036 1 7.0 24.5 21.0
1037 1 7.0 24.5 24.5
1038 1 7.0 24.5 28.0
1039 1 7.0 24.5 31.5
1040 1 7.0 24.5 35.0
1041 1 7.0 26.25 1.75
1042 1 7.0 26.25 5.25
1043 1 7.0 26.25 8.75
1044 1 7.0 26.25 12.25
1045 1 7.0 26.25 15.75
1046 1 7.0 26.25 19.25
1047 1 7.0 26.25 22.75
1048 1 7.0 26.25 26.25
1049 1 7.0 26.25 29.75
1050 1 7.0 26.25 33.25
1051 1 7.0 28.0 0.0
1052 1 7.0 28.0 3.5
1053 1 7.0 28.0 7.0
1054 1 7.0 28.0 10.5
1055 1 7.0 28.0 14.0
1056 1 7.0 28.0 17.5
1057 1 7.0 28.0 21.0
1058 1 7.0 28.0 24.5
1059 1 7.0 28.0 28.0
1060 1 7.0 28.0 31.5
1061 1 7.0 28.0 35.0
1062 1 7.0 29.75 1.75
1063 1 7.0 29.75 5.25
1064 1 7.0 29.75 8.75
1065 1 7.0 29.75 12.25
1066 1 7.0 29.75 15.75
1067 1 7.0 29.75 19.25
1068 1 7.0 29.75 22.75
1069 1 7.0 29.75 26.25
1070 1 7.0 29.75 29.75
1071 1 7.0 29.75 33.25
1072 1 7.0 31.5 0.0
1073 1 7.0 31.5 3.5
1074 1 7.0 31.5 7.0
1075 1 7.0 31.5 10.5
1076 1 7.0 31.5 14.0
1077 1 7.0 31.5 17.5
1078 1 7.0 31.5 21.0
1079 1 7.0 31.5 24.5
1080 1 7.0 31.5 28.0
1081 1 7.0 31.5 31.5
1082 1 7.0 31.5 35.0
1083 1 7.0 33.25 1.75
1084 1 7.0 33.25 5.25
1085 1 7.0 33.25 8.75
1086 1 7.0 33.25 12.25
1087 1 7.0 33.25 15.75
1088 1 7.0 33.25 19.25
1089 1 7.0 33.25 22.75
1090 1 7.0 33.25 26.25
1091 1 7.0 33.25 29.75
1092 1 7.0 33.25 33.25
1093 1 7.0 35.0 0.0
1094 1 7.0 35.0 3.5
1095 1 7.0 35.0 7.0
1096 1 7.0 35.0 10.5
1097 1 7.0 35.0 14.0
1098 1 7.0 35.0 17.5
1099 1 7.0 35.0 21.0
1100 1 7.0 35.0 24.5
1101 1 7.0 35.0 28.0
1102 1 7.0 35.0 31.5
1103 1 7.0 35.0 35.0
1104 1 8.75 0.0 1.75
1105 1 8.75 0.0 5.25
1106 1 8.75 0.0 8.75
1107 1 8.75 0.0 12.25
1108 1 8.75 0.0 15.75
1109 1 8.75 0.0 19.25
1110 1 8.75 0.0 22.75
1111 1 8.75 0.0 26.25
1112 1 8.75 0.0 29.75
1113 1 8.75 0.0 33.25
1114 1 8.75 1.75 0.0
1115 1 8.75 1.75 3.5
1116 1 8.75 1.75 7.0
1117 1 8.75 1.75 10.5
1118 1 8.75 1.75 14.0
1119 1 8.75 1.75 17.5
1120 1 8.75 1.75 21.0
1121 1 8.75 1.75 24.5
1122 1 8.75 1.75 28.0
1123 1 8.75 1.75 31.5
1124 1 8.75 1.75 35.0
1125 1 8.75 3.5 1.75
1126 1 8.75 3.5 5.25
1127 1 8.75 3.5 8.75
1128 1 8.75 3.5 12.25
1129 1 8.75 3.5 15.75
1130 1 8.75 3.5 19.25
1131 1 8.75 3.5 22.75
1132 1 8.75 3.5 26.25
1133 1 8.75 3.5 29.75
1134 1 8.75 3.5 33.25
1135 1 8.75 5.25 0.0
1136 1 8.75 5.25 3.5
1137 1 8.75 5.25 7.0
1138 1 8.75 5.25 10.5
1139 1 8.75 5.25 14.0
1140 1 8.75 5.25 17.5
1141 1 8.75 5.25 21.0
1142 1 8.75 5.25 24.5
1143 1 8.75 5.25 28.0
1144 1 8.75 5.25 31.5
1145 1 8.75 5.25 35.0
1146 1 8.75 7.0 1.75
1147 1 8.75 7.0 5.25
1148 1 8.75 7.0 8.75
1149 1 8.75 7.0 12.25
1150 1 8.75 7.0 15.75
1151 1 8.75 7.0 19.25
1152 1 8.75 7.0 22.75
1153 1 8.75 7.0 26.25
1154 1 8.75 7.0 29.75
1155 1 8.75 7.0 33.25
1156 1 8.75 8.75 0.0
1157 1 8.75 8.75 3.5
1158 1 8.75 8.75 7.0
1159 1 8.75 8.75 10.5
1160 1 8.75 8.75 14.0
1161 1 8.75 8.75 17.5
1162 1 8.75 8.75 21.0
1163 1 8.75 8.75 24.5
1164 1 8.75 8.75 28.0
1165 1 8.75 8.75 31.5
1166 1 8.75 8.75 35.0
1167 1 8.75 10.5 1.75
1168 1 8.75 10.5 5.25
1169 1 8.75 10.5 8.75
1170 1 8.75 10.5 12.25
1171 1 8.75 10.5 15.75
1172 1 8.75 10.5 19.25
1173 1 8.75 10.5 22.75
1174 1 8.75 10.5 26.25
1175 1 8.75 10.5 29.75
1176 1 8.75 10.5 33.25
1177 1 8.75 12.25 0.0
1178 1 8.75 12.25 3.5
1179 1 8.75 12.25 7.0
1180 1 8.75 12.25 10.5
1181 1 8.75 12.25 14.0
1182 1 8.75 12.25 17.5
1183 1 8.75 12.25 21.0
1184 1 8.75 12.25 24.5
1185 1 8.75 12.25 28.0
1186 1 8.75 12.25 31.5
1187 1 8.75 12.25 35.0
1188 1 8.75 14.0 1.75
1189 1 8.75 14.0 5.25
1190 1 8.75 14.0 8.75
1191 1 8.75 14.0 12.25
1192 1 8.75 14.0 15.75
1193 1 8.75 14.0 19.25
1194 1 8.75 14.0 22.75
1195 1 8.75 14.0 26.25
1196 1 8.75 14.0 29.75
1197 1 8.75 14.0 33.25
1198 1 8.75 15.75 0.0
1199 1 8.75 15.75 3.5
1200 1 8.75 15.75 7.0
1201 1 8.75 15.75 10.5
1202 1 8.75 15.75 14.0
1203 1 8.75 15.75 17.5
1204 1 8.75 15.75 21.0
1205 1 8.75 15.75 24.5
1206 1 8.75 15.75 28.0
1207 1 8.75 15.75 31.5
1208 1 8.75 15.75 35.0
1209 1 8.75 17.5 1.75
1210 1 8.75 17.5 5.25
1211 1 8.75 17.5 8.75
1212 1 8.75 17.5 12.25
1213 1 8.75 17.5 15.75
1214 1 8.75 17.5 19.25
1215 1 8.75 17.5 22.75
1216 1 8.75 17.5 26.25
1217 1 8.75 17.5 29.75
1218 1 8.75 17.5 33.25
1219 1 8.75 19.25 0.0
1220 1 8.75 19.25 3.5
1221 1 8.75 19.25 7.0
1222 1 8.75 19.25 10.5
1223 1 8.75 19.25 14.0
1224 1 8.75 19.25 17.5
1225 1 8.75 19.25 21.0
1226 1 8.75 19.25 24.5
1227 1 8.75 19.25 28.0
1228 1 8.75 19.25 31.5
1229 1 8.75 19.25 35.0
1230 1 8.75 21.0 1.75
1231 1 8.75 21.0 5.25
1232 1 8.75 21.0 8.75
1233 1 8.75 21.0 12.25
1234 1 8.75 21.0 15.75
1235 1 8.75 21.0 19.25
1236 1 8.75 21.0 22.75
1237 1 8.75 21.0 26.25
1238 1 8.75 21.0 29.75
1239 1 8.75 21.0 33.25
1240 1 8.75 22.75 0.0
1241 1 8.75 22.75 3.5
1242 1 8.75 22.75 7.0
1243 1 8.75 22.75 10.5
1244 1 8.75 22.75 14.0
1245 1 8.75 22.75 17.5
1246 1 8.75 22.75 21.0
1247 1 8.75 22.75 24.5
1248 1 8.75 22.75 28.0
1249 1 8.75 22.75 31.5
1250 1 8.75 22.75 35.0
1251 1 8.75 24.5 1.75
1252 1 8.75 24.5 5.25
1253 1 8.75 24.5 8.75
1254 1 8.75 24.5 12.25
1255 1 8.75 24.5 15.75
1256 1 8.75 24.5 19.25
1257 1 8.75 24.5 22.75
1258 1 8.75 24.5 26.25
1259 1 8.75 24.5 29.75
1260 1 8.75 24.5 33.25
1261 1 8.75 26.25 0.0
1262 1 8.75 26.25 3.5
1263 1 8.75 26.25 7.0
1264 1 8.75 26.25 10.5
1265 1 8.75 26.25 14.0
1266 1 8.75 26.25 17.5
1267 1 8.75 26.25 21.0
1268 1 8.75 26.25 24.5
1269 1 8.75 26.25 28.0
1270 1 8.75 26.25 31.5
1271 1 8.75 26.25 35.0
1272 1 8.75 28.0 1.75
1273 1 8.75 28.0 5.25
1274 1 8.75 28.0 8.75
1275 1 8.75 28.0 12.25
1276 1 8.75 28.0 15.75
1277 1 8.75 28.0 19.25
1278 1 8.75 28.0 22.75
1279 1 8.75 28.0 26.25
1280 1 8.75 28.0 29.75
1281 1 8.75 28.0 33.25
1282 1 8.75 29.75 0.0
1283 1 8.75 29.75 3.5
1284 1 8.75 29.75 7.0
1285 1 8.75 29.75 10.5
1286 1 8.75 29.75 14.0
1287 1 8.75 29.75 17.5
1288 1 8.75 29.75 21.0
1289 1 8.75 29.75 24.5
1290 1 8.75 29.75 28.0
1291 1 8.75 29.75 31.5
1292 1 8.75 29.75 35.0
1293 1 8.75 31.5 1.75
1294 1 8.75 31.5 5.25
1295 1 8.75 31.5 8.75
1296 1 8.75 31.5 12.25
1297 1 8.75 31.5 15.75
1298 1 8.75 31.5 19.25
1299 1 8.75 31.5 22.75
1300 1 8.75 31.5 26.25
1301 1 8.75 31.5 29.75
1302 1 8.75 31.5 33.25
1303 1 8.75 33.25 0.0
1304 1 8.75 33.25 3.5
1305 1 8.75 33.25 7.0
1306 1 8.75 33.25 10.5
1307 1 8.75 33.25 14.0
1308 1 8.75 33.25 17.5
1309 1 8.75 33.25 21.0
1310 1 8.75 33.25 24.5
1311 1 8.75 33.25 28.0
1312 1 8.75 33.25 31.5
1313 1 8.75 33.25 35.0
1314 1 8.75 35.0 1.75
1315 1 8.75 35.0 5.25
1316 1 8.75 35.0 8.75
1317 1 8.75 35.0 12.25
1318 1 8.75 35.0 15.75
1319 1 8.75 35.0 19.25
1320 1 8.75 35.0 22.75
1321 1 8.75 35.0 26.25
1322 1 8.75 35.0 29.75
1323 1 8.75 35.0 33.25
1324 1 10.5 0.0 0.0
1325 1 10.5 0.0 3.5
1326 1 10.5 0.0 7.0
1327 1 10.5 0.0 10.5
1328 1 10.5 0.0 14.0
1329 1 10.5 0.0 17.5
1330 1 10.5 0.0 21.0
1331 1 10.5 0.0 24.5
1332 1 10.5 0.0 28.0
1333 1 10.5 0.0 31.5
1334 1 10.5 0.0 35.0
1335 1 10.5 1.75 1.75
1336 1 10.5 1.75 5.25
1337 1 10.5 1.75 8.75
1338 1 10.5 1.75 12.25
1339 1 10.5 1.75 15.75
1340 1 10.5 1.75 19.25
1341 1 10.5 1.75 22.75
1342 1 10.5 1.75 26.25
1343 1 10.5 1.75 29.75
1344 1 10.5 1.75 33.25
1345 1 10.5 3.5 0.0
1346 1 10.5 3.5 3.5
1347 1 10.5 3.5 7.0
1348 1 10.5 3.5 10.5
1349 1 10.5 3.5 14.0
1350 1 10.5 3.5 17.5
1351 1 10.5 3.5 21.0
1352 1 10.5 3.5 24.5
1353 1 10.5 3.5 28.0
1354 1 10.5 3.5 31.5
1355 1 10.5 3.5 35.0
1356 1 10.5 5.25 1.75
1357 1 10.5 5.25 5.25
1358 1 10.5 5.25 8.75
1359 1 10.5 5.25 12.25
1360 1 10.5 5.25 15.75
1361 1 10.5 5.25 19.25
1362 1 10.5 5.25 22.75
1363 1 10.5 5.25 26.25
1364 1 10.5 5.25 29.75
1365 1 10.5 5.25 33.25
1366 1 10.5 7.0 0.0
1367 1 10.5 7.0 3.5
1368 1 10.5 7.0 7.0
1369 1 10.5 7.0 10.5
1370 1 10.5 7.0 14.0
1371 1 10.5 7.0 17.5
1372 1 10.5 7.0 21.0
1373 1 10.5 7.0 24.5
1374 1 10.5 7.0 28.0
1375 1 10.5 7.0 31.5
1376 1 10.5 7.0 35.0
1377 1 10.5 8.75 1.75
1378 1 10.5 8.75 5.25
1379 1 10.5 8.75 8.75
1380 1 10.5 8.75 12.25
1381 1 10.5 8.75 15.75
1382 1 10.5 8.75 19.25
1383 1 10.5 8.75 22.75
1384 1 10.5 8.75 26.25
1385 1 10.5 8.75 29.75
1386 1 10.5 8.75 33.25
1387 1 10.5 10.5 0.0
1388 1 10.5 10.5 3.5
1389 1 10.5 10.5 7.0
1390 1 10.5 10.5 10.5
1391 1 10.5 10.5 14.0
1392 1 10.5 10.5 17.5
1393 1 10.5 10.5 21.0
1394 1 10.5 10.5 24.5
1395 1 10.5 10.5 28.0
1396 1 10.5 10.5 31.5
1397 1 10.5 10.5 35.0
1398 1 10.5 12.25 1.75
1399 1 10.5 12.25 5.25
1400 1 10.5 12.25 8.75
1401 1 10.5 12.25 12.25
1402 1 10.5 12.25 15.75
1403 1 10.5 12.25 19.25
1404 1 10.5 12.25 22.75
1405 1 10.5 12.25 26.25
1406 1 10.5 12.25 29.75
1407 1 10.5 12.25 33.25
1408 1 10.5 14.0 0.0
1409 1 10.5 14.0 3.5
1410 1 10.5 14.0 7.0
1411 1 10.5 14.0 10.5
1412 1 10.5 14.0 14.0
1413 1 10.5 14.0 17.5
1414 1 10.5 14.0 21.0
1415 1 10.5 14.0 24.5
1416 1 10.5 14.0 28.0