ITEM: TIMESTEP
0
ITEM: NUMBER OF ATOMS
4631
ITEM: BOX BOUNDS pp pp pp
0.0 36.4
0.0 36.4
0.0 36.4
ITEM: ATOMS id type x y z
1 1 0.0 0.0 0.0
2 1 0.0 0.0 3.6
3 1 0.0 0.0 7.2
4 1 0.0 0.0 10.8
5 1 0.0 0.0 14.4
6 1 0.0 0.0 18.0
7 1 0.0 0.0 21.6
8 1 0.0 0.0 25.2
9 1 0.0 0.0 28.8
10 1 0.0 0.0 32.4
11 1 0.0 0.0 36.0
12 1 0.0 1.8 1.8
13 1 0.0 1.8 5.4
14 1 0.0 1.8 9.0
15 1 0.0 1.8 12.6
16 1 0.0 1.8 16.2
17 1 0.0 1.8 19.8
18 1 0.0 1.8 23.4
19 1 0.0 1.8 27.0
20 1 0.0 1.8 30.6
21 1 0.0 1.8 34.2
22 1 0.0 3.6 0.0
23 1 0.0 3.6 3.6
24 1 0.0 3.6 7.2
25 1 0.0 3.6 10.8
26 1 0.0 3.6 14.4
27 1 0.0 3.6 18.0
28 1 0.0 3.6 21.6
29 1 0.0 3.6 25.2
30 1 0.0 3.6 28.8
31 1 0.0 3.6 32.4
32 1 0.0 3.6 36.0
33 1 0.0 5.4 1.8
34 1 0.0 5.4 5.4
35 1 0.0 5.4 9.0
36 1 0.0 5.4 12.6
37 1 0.0 5.4 16.2
38 1 0.0 5.4 19.8
39 1 0.0 5.4 23.4
40 1 0.0 5.4 27.0
41 1 0.0 5.4 30.6
42 1 0.0 5.4 34.2
43 1 0.0 7.2 0.0
44 1 0.0 7.2 3.6
45 1 0.0 7.2 7.2
46 1 0.0 7.2 10.8
47 1 0.0 7.2 14.4
48 1 0.0 7.2 18.0
49 1 0.0 7.2 21.6
50 1 0.0 7.2 25.2
51 1 0.0 7.2 28.8
52 1 0.0 7.2 32.4
53 1 0.0 7.2 36.0
54 1 0.0 9.0 1.8
55 1 0.0 9.0 5.4
56 1 0.0 9.0 9.0
57 1 0.0 9.0 12.6
58 1 0.0 9.0 16.2
59 1 0.0 9.0 19.8
60 1 0.0 9.0 23.4
61 1 0.0 9.0 27.0
62 1 0.0 9.0 30.6
63 1 0.0 9.0 34.2
64 1 0.0 10.8 0.0
65 1 0.0 10.8 3.6
66 1 0.0 10.8 7.2
67 1 0.0 10.8 10.8
68 1 0.0 10.8 14.4
69 1 0.0 10.8 18.0
70 1 0.0 10.8 21.6
71 1 0.0 10.8 25.2
72 1 0.0 10.8 28.8
73 1 0.0 10.8 32.4
74 1 0.0 10.8 36.0
75 1 0.0 12.6 1.8
76 1 0.0 12.6 5.4
77 1 0.0 12.6 9.0
78 1 0.0 12.6 12.6
79 1 0.0 12.6 16.2
80 1 0.0 12.6 19.8
81 1 0.0 12.6 23.4
82 1 0.0 12.6 27.0
83 1 0.0 12.6 30.6
84 1 0.0 12.6 34.2
85 1 0.0 14.4 0.0
86 1 0.0 14.4 3.6
87 1 0.0 14.4 7.2
88 1 0.0 14.4 10.8
89 1 0.0 14.4 14.4
90 1 0.0 14.4 18.0
91 1 0.0 14.4 21.6
92 1 0.0 14.4 25.2
93 1 0.0 14.4 28.8
94 1 0.0 14.4 32.4
95 1 0.0 14.4 36.0
96 1 0.0 16.2 1.8
97 1 0.0 16.2 5.4
98 1 0.0 16.2 9.0
99 1 0.0 16.2 12.6
100 1 0.0 16.2 16.2
101 1 0.0 16.2 19.8
102 1 0.0 16.2 23.4
103 1 0.0 16.2 27.0
104 1 0.0 16.2 30.6
105 1 0.0 16.2 34.2
106 1 0.0 18.0 0.0
107 1 0.0 18.0 3.6
108 1 0.0 18.0 7.2
109 1 0.0 18.0 10.8
110 1 0.0 18.0 14.4
111 1 0.0 18.0 18.0
112 1 0.0 18.0 21.6
113 1 0.0 18.0 25.2
114 1 0.0 18.0 28.8
115 1 0.0 18.0 32.4
116 1 0.0 18.0 36.0
117 1 0.0 19.8 1.8
118 1 0.0 19.8 5.4
119 1 0.0 19.8 9.0
120 1 0.0 19.8 12.6
121 1 0.0 19.8 16.2
122 1 0.0 19.8 19.8
123 1 0.0 19.8 23.4
124 1 0.0 19.8 27.0
125 1 0.0 19.8 30.6
126 1 0.0 19.8 34.2
127 1 0.0 21.6 0.0
128 1 0.0 21.6 3.6
129 1 0.0 21.6 7.2
130 1 0.0 21.6 10.8
131 1 0.0 21.6 14.4
132 1 0.0 21.6 18.0
133 1 0.0 21.6 21.6
134 1 0.0 21.6 25.2
135 1 0.0 21.6 28.8
136 1 0.0 21.6 32.4
137 1 0.0 21.6 36.0
138 1 0.0 23.4 1.8
139 1 0.0 23.4 5.4
140 1 0.0 23.4 9.0
141 1 0.0 23.4 12.6
142 1 0.0 23.4 16.2
143 1 0.0 23.4 19.8
144 1 0.0 23.4 23.4
145 1 0.0 23.4 27.0
146 1 0.0 23.4 30.6
147 1 0.0 23.4 34.2
148 1 0.0 25.2 0.0
149 1 0.0 25.2 3.6
150 1 0.0 25.2 7.2
151 1 0.0 25.2 10.8
152 1 0.0 25.2 14.4
153 1 0.0 25.2 18.0
154 1 0.0 25.2 21.6
155 1 0.0 25.2 25.2
156 1 0.0 25.2 28.8
157 1 0.0 25.2 32.4
158 1 0.0 25.2 36.0
159 1 0.0 27.0 1.8
160 1 0.0 27.0 5.4
161 1 0.0 27.0 9.0
162 1 0.0 27.0 12.6
163 1 0.0 27.0 16.2
164 1 0.0 27.0 19.8
165 1 0.0 27.0 23.4
166 1 0.0 27.0 27.0
167 1 0.0 27.0 30.6
168 1 0.0 27.0 34.2
169 1 0.0 28.8 0.0
170 1 0.0 28.8 3.6
171 1 0.0 28.8 7.2
172 1 0.0 28.8 10.8
173 1 0.0 28.8 14.4
174 1 0.0 28.8 18.0
175 1 0.0 28.8 21.6
176 1 0.0 28.8 25.2
177 1 0.0 28.8 28.8
178 1 0.0 28.8 32.4
179 1 0.0 28.8 36.0
180 1 0.0 30.6 1.8
181 1 0.0 30.6 5.4
182 1 0.0 30.6 9.0
183 1 0.0 30.6 12.6
184 1 0.0 30.6 16.2
185 1 0.0 30.6 19.8
186 1 0.0 30.6 23.4
187 1 0.0 30.6 27.0
188 1 0.0 30.6 30.6
189 1 0.0 30.6 34.2
190 1 0.0 32.4 0.0
191 1 0.0 32.4 3.6
192 1 0.0 32.4 7.2
193 1 0.0 32.4 10.8
194 1 0.0 32.4 14.4
195 1 0.0 32.4 18.0
196 1 0.0 32.4 21.6
197 1 0.0 32.4 25.2
198 1 0.0 32.4 28.8
199 1 0.0 32.4 32.4
200 1 0.0 32.4 36.0
201 1 0.0 34.2 1.8
202 1 0.0 34.2 5.4
203 1 0.0 34.2 9.0
204 1 0.0 34.2 12.6
205 1 0.0 34.2 16.2
206 1 0.0 34.2 19.8
207 1 0.0 34.2 23.4
208 1 0.0 34.2 27.0
209 1 0.0 34.2 30.6
210 1 0.0 34.2 34.2
211 1 0.0 36.0 0.0
212 1 0.0 36.0 3.6
213 1 0.0 36.0 7.2
214 1 0.0 36.0 10.8
215 1 0.0 36.0 14.4
216 1 0.0 36.0 18.0
217 1 0.0 36.0 21.6
218 1 0.0 36.0 25.2
219 1 0.0 36.0 28.8
220 1 0.0 36.0 32.4
221 1 0.0 36.0 36.0
222 1 1.8 0.0 1.8
223 1 1.8 0.0 5.4
224 1 1.8 0.0 9.0
225 1 1.8 0.0 12.6
226 1 1.8 0.0 16.2
227 1 1.8 0.0 19.8
228 1 1.8 0.0 23.4
229 1 1.8 0.0 27.0
230 1 1.8 0.0 30.6
231 1 1.8 0.0 34.2
232 1 1.8 1.8 0.0
233 1 1.8 1.8 3.6
234 1 1.8 1.8 7.2
235 1 1.8 1.8 10.8
236 1 1.8 1.8 14.4
237 1 1.8 1.8 18.0
238 1 1.8 1.8 21.6
239 1 1.8 1.8 25.2
240 1 1.8 1.8 28.8
241 1 1.8 1.8 32.4
242 1 1.8 1.8 36.0
243 1 1.8 3.6 1.8
244 1 1.8 3.6 5.4
245 1 1.8 3.6 9.0
246 1 1.8 3.6 12.6
247 1 1.8 3.6 16.2
248 1 1.8 3.6 19.8
249 1 1.8 3.6 23.4
250 1 1.8 3.6 27.0
251 1 1.8 3.6 30.6
252 1 1.8 3.6 34.2
253 1 1.8 5.4 0.0
254 1 1.8 5.4 3.6
255 1 1.8 5.4 7.2
256 1 1.8 5.4 10.8
257 1 1.8 5.4 14.4
258 1 1.8 5.4 18.0
259 1 1.8 5.4 21.6
260 1 1.8 5.4 25.2
261 1 1.8 5.4 28.8
262 1 1.8 5.4 32.4
263 1 1.8 5.4 36.0
264 1 1.8 7.2 1.8
265 1 1.8 7.2 5.4
266 1 1.8 7.2 9.0
267 1 1.8 7.2 12.6
268 1 1.8 7.2 16.2
269 1 1.8 7.2 19.8
270 1 1.8 7.2 23.4
271 1 1.8 7.2 27.0
272 1 1.8 7.2 30.6
273 1 1.8 7.2 34.2
274 1 1.8 9.0 0.0
275 1 1.8 9.0 3.6
276 1 1.8 9.0 7.2
277 1 1.8 9.0 10.8
278 1 1.8 9.0 14.4
279 1 1.8 9.0 18.0
280 1 1.8 9.0 21.6
281 1 1.8 9.0 25.2
282 1 1.8 9.0 28.8
283 1 1.8 9.0 32.4
284 1 1.8 9.0 36.0
285 1 1.8 10.8 1.8
286 1 1.8 10.8 5.4
287 1 1.8 10.8 9.0
288 1 1.8 10.8 12.6
289 1 1.8 10.8 16.2
290 1 1.8 10.8 19.8
291 1 1.8 10.8 23.4
292 1 1.8 10.8 27.0
293 1 1.8 10.8 30.6
294 1 1.8 10.8 34.2
295 1 1.8 12.6 0.0
296 1 1.8 12.6 3.6
297 1 1.8 12.6 7.2
298 1 1.8 12.6 10.8
299 1 1.8 12.6 14.4
300 1 1.8 12.6 18.0
301 1 1.8 12.6 21.6
302 1 1.8 12.6 25.2
303 1 1.8 12.6 28.8
304 1 1.8 12.6 32.4
305 1 1.8 12.6 36.0
306 1 1.8 14.4 1.8
307 1 1.8 14.4 5.4
308 1 1.8 14.4 9.0
309 1 1.8 14.4 12.6
310 1 1.8 14.4 16.2
311 1 1.8 14.4 19.8
312 1 1.8 14.4 23.4
313 1 1.8 14.4 27.0
314 1 1.8 14.4 30.6
315 1 1.8 14.4 34.2
316 1 1.8 16.2 0.0
317 1 1.8 16.2 3.6
318 1 1.8 16.2 7.2
319 1 1.8 16.2 10.8
320 1 1.8 16.2 14.4
321 1 1.8 16.2 18.0
322 1 1.8 16.2 21.6
323 1 1.8 16.2 25.2
324 1 1.8 16.2 28.8
325 1 1.8 16.2 32.4
326 1 1.8 16.2 36.0
327 1 1.8 18.0 1.8
328 1 1.8 18.0 5.4
329 1 1.8 18.0 9.0
330 1 1.8 18.0 12.6
331 1 1.8 18.0 16.2
332 1 1.8 18.0 19.8
333 1 1.8 18.0 23.4
334 1 1.8 18.0 27.0
335 1 1.8 18.0 30.6
336 1 1.8 18.0 34.2
337 1 1.8 19.8 0.0
338 1 1.8 19.8 3.6
339 1 1.8 19.8 7.2
340 1 1.8 19.8 10.8
341 1 1.8 19.8 14.4
342 1 1.8 19.8 18.0
343 1 1.8 19.8 21.6
344 1 1.8 19.8 25.2
345 1 1.8 19.8 28.8
346 1 1.8 19.8 32.4
347 1 1.8 19.8 36.0
348 1 1.8 21.6 1.8
349 1 1.8 21.6 5.4
350 1 1.8 21.6 9.0
351 1 1.8 21.6 12.6
352 1 1.8 21.6 16.2
353 1 1.8 21.6 19.8
354 1 1.8 21.6 23.4
355 1 1.8 21.6 27.0
356 1 1.8 21.6 30.6
357 1 1.8 21.6 34.2
358 1 1.8 23.4 0.0
359 1 1.8 23.4 3.6
360 1 1.8 23.4 7.2
361 1 1.8 23.4 10.8
362 1 1.8 23.4 14.4
363 1 1.8 23.4 18.0
364 1 1.8 23.4 21.6
365 1 1.8 23.4 25.2
366 1 1.8 23.4 28.8
367 1 1.8 23.4 32.4
368 1 1.8 23.4 36.0
369 1 1.8 25.2 1.8
370 1 1.8 25.2 5.4
371 1 1.8 25.2 9.0
372 1 1.8 25.2 12.6
373 1 1.8 25.2 16.2
374 1 1.8 25.2 19.8
375 1 1.8 25.2 23.4
376 1 1.8 25.2 27.0
377 1 1.8 25.2 30.6
378 1 1.8 25.2 34.2
379 1 1.8 27.0 0.0
380 1 1.8 27.0 3.6
381 1 1.8 27.0 7.2
382 1 1.8 27.0 10.8
383 1 1.8 27.0 14.4
384 1 1.8 27.0 18.0
385 1 1.8 27.0 21.6
386 1 1.8 27.0 25.2
387 1 1.8 27.0 28.8
388 1 1.8 27.0 32.4
389 1 1.8 27.0 36.0
390 1 1.8 28.8 1.8
391 1 1.8 28.8 5.4
392 1 1.8 28.8 9.0
393 1 1.8 28.8 12.6
394 1 1.8 28.8 16.2
395 1 1.8 28.8 19.8
396 1 1.8 28.8 23.4
397 1 1.8 28.8 27.0
398 1 1.8 28.8 30.6
399 1 1.8 28.8 34.2
400 1 1.8 30.6 0.0
401 1 1.8 30.6 3.6
402 1 1.8 30.6 7.2
403 1 1.8 30.6 10.8
404 1 1.8 30.6 14.4
405 1 1.8 30.6 18.0
406 1 1.8 30.6 21.6
407 1 1.8 30.6 25.2
408 1 1.8 30.6 28.8
409 1 1.8 30.6 32.4
410 1 1.8 30.6 36.0
411 1 1.8 32.4 1.8
412 1 1.8 32.4 5.4
413 1 1.8 32.4 9.0
414 1 1.8 32.4 12.6
415 1 1.8 32.4 16.2
416 1 1.8 32.4 19.8
417 1 1.8 32.4 23.4
418 1 1.8 32.4 27.0
419 1 1.8 32.4 30.6
420 1 1.8 32.4 34.2
421 1 1.8 34.2 0.0
422 1 1.8 34.2 3.6
423 1 1.8 34.2 7.2
424 1 1.8 34.2 10.8
425 1 1.8 34.2 14.4
426 1 1.8 34.2 18.0
427 1 1.8 34.2 21.6
428 1 1.8 34.2 25.2
429 1 1.8 34.2 28.8
430 1 1.8 34.2 32.4
431 1 1.8 34.2 36.0
432 1 1.8 36.0 1.8
433 1 1.8 36.0 5.4
434 1 1.8 36.0 9.0
435 1 1.8 36.0 12.6
436 1 1.8 36.0 16.2
437 1 1.8 36.0 19.8
438 1 1.8 36.0 23.4
439 1 1.8 36.0 27.0
440 1 1.8 36.0 30.6
441 1 1.8 36.0 34.2
442 1 3.6 0.0 0.0
443 1 3.6 0.0 3.6
444 1 3.6 0.0 7.2
445 1 3.6 0.0 10.8
446 1 3.6 0.0 14.4
447 1 3.6 0.0 18.0
448 1 3.6 0.0 21.6
449 1 3.6 0.0 25.2
450 1 3.6 0.0 28.8
451 1 3.6 0.0 32.4
452 1 3.6 0.0 36.0
453 1 3.6 1.8 1.8
454 1 3.6 1.8 5.4
455 1 3.6 1.8 9.0
456 1 3.6 1.8 12.6
457 1 3.6 1.8 16.2
458 1 3.6 1.8 19.8
459 1 3.6 1.8 23.4
460 1 3.6 1.8 27.0
461 1 3.6 1.8 30.6
462 1 3.6 1.8 34.2
463 1 3.6 3.6 0.0
464 1 3.6 3.6 3.6
465 1 3.6 3.6 7.2
466 1 3.6 3.6 10.8
467 1 3.6 3.6 14.4
468 1 3.6 3.6 18.0
469 1 3.6 3.6 21.6
470 1 3.6 3.6 25.2
471 1 3.6 3.6 28.8
472 1 3.6 3.6 32.4
473 1 3.6 3.6 36.0
474 1 3.6 5.4 1.8
475 1 3.6 5.4 5.4
476 1 3.6 5.4 9.0
477 1 3.6 5.4 12.6
478 1 3.6 5.4 16.2
479 1 3.6 5.4 19.8
480 1 3.6 5.4 23.4
481 1 3.6 5.4 27.0
482 1 3.6 5.4 30.6
483 1 3.6 5.4 34.2
484 1 3.6 7.2 0.0
485 1 3.6 7.2 3.6
486 1 3.6 7.2 7.2
487 1 3.6 7.2 10.8
488 1 3.6 7.2 14.4
489 1 3.6 7.2 18.0
490 1 3.6 7.2 21.6
491 1 3.6 7.2 25.2
492 1 3.6 7.2 28.8
493 1 3.6 7.2 32.4
494 1 3.6 7.2 36.0
495 1 3.6 9.0 1.8
496 1 3.6 9.0 5.4
497 1 3.6 9.0 9.0
498 1 3.6 9.0 12.6
499 1 3.6 9.0 16.2
500 1 3.6 9.0 19.8
501 1 3.6 9.0 23.4
502 1 3.6 9.0 27.0
503 1 3.6 9.0 30.6
504 1 3.6 9.0 34.2
505 1 3.6 10.8 0.0
506 1 3.6 10.8 3.6
507 1 3.6 10.8 7.2
508 1 3.6 10.8 10.8
509 1 3.6 10.8 14.4
510 1 3.6 10.8 18.0
511 1 3.6 10.8 21.6
512 1 3.6 10.8 25.2
513 1 3.6 10.8 28.8
514 1 3.6 10.8 32.4
515 1 3.6 10.8 36.0
516 1 3.6 12.6 1.8
517 1 3.6 12.6 5.4
518 1 3.6 12.6 9.0
519 1 3.6 12.6 12.6
520 1 3.6 12.6 16.2
521 1 3.6 12.6 19.8
522 1 3.6 12.6 23.4
523 1 3.6 12.6 27.0
524 1 3.6 12.6 30.6
525 1 3.6 12.6 34.2
526 1 3.6 14.4 0.0
527 1 3.6 14.4 3.6
528 1 3.6 14.4 7.2
529 1 3.6 14.4 10.8
530 1 3.6 14.4 14.4
531 1 3.6 14.4 18.0
532 1 3.6 14.4 21.6
533 1 3.6 14.4 25.2
534 1 3.6 14.4 28.8
535 1 3.6 14.4 32.4
536 1 3.6 14.4 36.0
537 1 3.6 16.2 1.8
538 1 3.6 16.2 5.4
539 1 3.6 16.2 9.0
540 1 3.6 16.2 12.6
541 1 3.6 16.2 16.2
542 1 3.6 16.2 19.8
543 1 3.6 16.2 23.4
544 1 3.6 16.2 27.0
545 1 3.6 16.2 30.6
546 1 3.6 16.2 34.2
547 1 3.6 18.0 0.0
548 1 3.6 18.0 3.6
549 1 3.6 18.0 7.2
550 1 3.6 18.0 10.8
551 1 3.6 18.0 14.4
552 1 3.6 18.0 18.0
553 1 3.6 18.0 21.6
554 1 3.6 18.0 25.2
555 1 3.6 18.0 28.8
556 1 3.6 18.0 32.4
557 1 3.6 18.0 36.0
558 1 3.6 19.8 1.8
559 1 3.6 19.8 5.4
560 1 3.6 19.8 9.0
561 1 3.6 19.8 12.6
562 1 3.6 19.8 16.2
563 1 3.6 19.8 19.8
564 1 3.6 19.8 23.4
565 1 3.6 19.8 27.0
566 1 3.6 19.8 30.6
567 1 3.6 19.8 34.2
568 1 3.6 21.6 0.0
569 1 3.6 21.6 3.6
570 1 3.6 21.6 7.2
571 1 3.6 21.6 10.8
572 1 3.6 21.6 14.4
573 1 3.6 21.6 18.0
574 1 3.6 21.6 21.6
575 1 3.6 21.6 25.2
576 1 3.6 21.6 28.8
577 1 3.6 21.6 32.4
578 1 3.6 21.6 36.0
579 1 3.6 23.4 1.8
580 1 3.6 23.4 5.4
581 1 3.6 23.4 9.0
582 1 3.6 23.4 12.6
583 1 3.6 23.4 16.2
584 1 3.6 23.4 19.8
585 1 3.6 23.4 23.4
586 1 3.6 23.4 27.0
587 1 3.6 23.4 30.6
588 1 3.6 23.4 34.2
589 1 3.6 25.2 0.0
590 1 3.6 25.2 3.6
591 1 3.6 25.2 7.2
592 1 3.6 25.2 10.8
593 1 3.6 25.2 14.4
594 1 3.6 25.2 18.0
595 1 3.6 25.2 21.6
596 1 3.6 25.2 25.2
597 1 3.6 25.2 28.8
598 1 3.6 25.2 32.4
599 1 3.6 25.2 36.0
600 1 3.6 27.0 1.8
601 1 3.6 27.0 5.4
602 1 3.6 27.0 9.0
603 1 3.6 27.0 12.6
604 1 3.6 27.0 16.2
605 1 3.6 27.0 19.8
606 1 3.6 27.0 23.4
607 1 3.6 27.0 27.0
608 1 3.6 27.0 30.6
609 1 3.6 27.0 34.2
610 1 3.6 28.8 0.0
611 1 3.6 28.8 3.6
612 1 3.6 28.8 7.2
613 1 3.6 28.8 10.8
614 1 3.6 28.8 14.4
615 1 3.6 28.8 18.0
616 1 3.6 28.8 21.6
617 1 3.6 28.8 25.2
618 1 3.6 28.8 28.8
619 1 3.6 28.8 32.4
620 1 3.6 28.8 36.0
621 1 3.6 30.6 1.8
622 1 3.6 30.6 5.4
623 1 3.6 30.6 9.0
624 1 3.6 30.6 12.6
625 1 3.6 30.6 16.2
626 1 3.6 30.6 19.8
627 1 3.6 30.6 23.4
628 1 3.6 30.6 27.0
629 1 3.6 30.6 30.6
630 1 3.6 30.6 34.2
631 1 3.6 32.4 0.0
632 1 3.6 32.4 3.6
633 1 3.6 32.4 7.2
634 1 3.6 32.4 10.8
635 1 3.6 32.4 14.4
636 1 3.6 32.4 18.0
637 1 3.6 32.4 21.6
638 1 3.6 32.4 25.2
639 1 3.6 32.4 28.8
640 1 3.6 32.4 32.4
641 1 3.6 32.4 36.0
642 1 3.6 34.2 1.8
643 1 3.6 34.2 5.4
644 1 3.6 34.2 9.0
645 1 3.6 34.2 12.6
646 1 3.6 34.2 16.2
647 1 3.6 34.2 19.8
648 1 3.6 34.2 23.4
649 1 3.6 34.2 27.0
650 1 3.6 34.2 30.6
651 1 3.6 34.2 34.2
652 1 3.6 36.0 0.0
653 1 3.6 36.0 3.6
654 1 3.6 36.0 7.2
655 1 3.6 36.0 10.8
656 1 3.6 36.0 14.4
657 1 3.6 36.0 18.0
658 1 3.6 36.0 21.6
659 1 3.6 36.0 25.2
660 1 3.6 36.0 28.8
661 1 3.6 36.0 32.4
662 1 3.6 36.0 36.0
663 1 5.4 0.0 1.8
664 1 5.4 0.0 5.4
665 1 5.4 0.0 9.0
666 1 5.4 0.0 12.6
667 1 5.4 0.0 16.2
668 1 5.4 0.0 19.8
669 1 5.4 0.0 23.4
670 1 5.4 0.0 27.0
671 1 5.4 0.0 30.6
672 1 5.4 0.0 34.2
673 1 5.4 1.8 0.0
674 1 5.4 1.8 3.6
675 1 5.4 1.8 7.2
676 1 5.4 1.8 10.8
677 1 5.4 1.8 14.4
678 1 5.4 1.8 18.0
679 1 5.4 1.8 21.6
680 1 5.4 1.8 25.2
681 1 5.4 1.8 28.8
682 1 5.4 1.8 32.4
683 1 5.4 1.8 36.0
684 1 5.4 3.6 1.8
685 1 5.4 3.6 5.4
686 1 5.4 3.6 9.0
687 1 5.4 3.6 12.6
688 1 5.4 3.6 16.2
689 1 5.4 3.6 19.8
690 1 5.4 3.6 23.4
691 1 5.4 3.6 27.0
692 1 5.4 3.6 30.6
693 1 5.4 3.6 34.2
694 1 5.4 5.4 0.0
695 1 5.4 5.4 3.6
696 1 5.4 5.4 7.2
697 1 5.4 5.4 10.8
698 1 5.4 5.4 14.4
699 1 5.4 5.4 18.0
700 1 5.4 5.4 21.6
701 1 5.4 5.4 25.2
702 1 5.4 5.4 28.8
703 1 5.4 5.4 32.4
704 1 5.4 5.4 36.0
705 1 5.4 7.2 1.8
706 1 5.4 7.2 5.4
707 1 5.4 7.2 9.0
708 1 5.4 7.2 12.6
709 1 5.4 7.2 16.2
710 1 5.4 7.2 19.8
711 1 5.4 7.2 23.4
712 1 5.4 7.2 27.0
713 1 5.4 7.2 30.6
714 1 5.4 7.2 34.2
715 1 5.4 9.0 0.0
716 1 5.4 9.0 3.6
717 1 5.4 9.0 7.2
718 1 5.4 9.0 10.8
719 1 5.4 9.0 14.4
720 1 5.4 9.0 18.0
721 1 5.4 9.0 21.6
722 1 5.4 9.0 25.2
723 1 5.4 9.0 28.8
724 1 5.4 9.0 32.4
725 1 5.4 9.0 36.0
726 1 5.4 10.8 1.8
727 1 5.4 10.8 5.4
728 1 5.4 10.8 9.0
729 1 5.4 10.8 12.6
730 1 5.4 10.8 16.2
731 1 5.4 10.8 19.8
732 1 5.4 10.8 23.4
733 1 5.4 10.8 27.0
734 1 5.4 10.8 30.6
735 1 5.4 10.8 34.2
736 1 5.4 12.6 0.0
737 1 5.4 12.6 3.6
738 1 5.4 12.6 7.2
739 1 5.4 12.6 10.8
740 1 5.4 12.6 14.4
741 1 5.4 12.6 18.0
742 1 5.4 12.6 21.6
743 1 5.4 12.6 25.2
744 1 5.4 12.6 28.8
745 1 5.4 12.6 32.4
746 1 5.4 12.6 36.0
747 1 5.4 14.4 1.8
748 1 5.4 14.4 5.4
749 1 5.4 14.4 9.0
750 1 5.4 14.4 12.6
751 1 5.4 14.4 16.2
752 1 5.4 14.4 19.8
753 1 5.4 14.4 23.4
754 1 5.4 14.4 27.0
755 1 5.4 14.4 30.6
756 1 5.4 14.4 34.2
757 1 5.4 16.2 0.0
758 1 5.4 16.2 3.6
759 1 5.4 16.2 7.2
760 1 5.4 16.2 10.8
761 1 5.4 16.2 14.4
762 1 5.4 16.2 18.0
763 1 5.4 16.2 21.6
764 1 5.4 16.2 25.2
765 1 5.4 16.2 28.8
766 1 5.4 16.2 32.4
767 1 5.4 16.2 36.0
768 1 5.4 18.0 1.8
769 1 5.4 18.0 5.4
770 1 5.4 18.0 9.0
771 1 5.4 18.0 12.6
772 1 5.4 18.0 16.2
773 1 5.4 18.0 19.8
774 1 5.4 18.0 23.4
775 1 5.4 18.0 27.0
776 1 5.4 18.0 30.6
777 1 5.4 18.0 34.2
778 1 5.4 19.8 0.0
779 1 5.4 19.8 3.6
780 1 5.4 19.8 7.2
781 1 5.4 19.8 10.8
782 1 5.4 19.8 14.4
783 1 5.4 19.8 18.0
784 1 5.4 19.8 21.6
785 1 5.4 19.8 25.2
786 1 5.4 19.8 28.8
787 1 5.4 19.8 32.4
788 1 5.4 19.8 36.0
789 1 5.4 21.6 1.8
790 1 5.4 21.6 5.4
791 1 5.4 21.6 9.0
792 1 5.4 21.6 12.6
793 1 5.4 21.6 16.2
794 1 5.4 21.6 19.8
795 1 5.4 21.6 23.4
796 1 5.4 21.6 27.0
797 1 5.4 21.6 30.6
798 1 5.4 21.6 34.2
799 1 5.4 23.4 0.0
800 1 5.4 23.4 3.6
801 1 5.4 23.4 7.2
802 1 5.4 23.4 10.8
803 1 5.4 23.4 14.4
804 1 5.4 23.4 18.0
805 1 5.4 23.4 21.6
806 1 5.4 23.4 25.2
807 1 5.4 23.4 28.8
808 1 5.4 23.4 32.4
809 1 5.4 23.4 36.0
810 1 5.4 25.2 1.8
811 1 5.4 25.2 5.4
812 1 5.4 25.2 9.0
813 1 5.4 25.2 12.6
814 1 5.4 25.2 16.2
815 1 5.4 25.2 19.8
816 1 5.4 25.2 23.4
817 1 5.4 25.2 27.0
818 1 5.4 25.2 30.6
819 1 5.4 25.2 34.2
820 1 5.4 27.0 0.0
821 1 5.4 27.0 3.6
822 1 5.4 27.0 7.2
823 1 5.4 27.0 10.8
824 1 5.4 27.0 14.4
825 1 5.4 27.0 18.0
826 1 5.4 27.0 21.6
827 1 5.4 27.0 25.2
828 1 5.4 27.0 28.8
829 1 5.4 27.0 32.4
830 1 5.4 27.0 36.0
831 1 5.4 28.8 1.8
832 1 5.4 28.8 5.4
833 1 5.4 28.8 9.0
834 1 5.4 28.8 12.6
835 1 5.4 28.8 16.2
836 1 5.4 28.8 19.8
837 1 5.4 28.8 23.4
838 1 5.4 28.8 27.0
839 1 5.4 28.8 30.6
840 1 5.4 28.8 34.2
841 1 5.4 30.6 0.0
842 1 5.4 30.6 3.6
843 1 5.4 30.6 7.2
844 1 5.4 30.6 10.8
845 1 5.4 30.6 14.4
846 1 5.4 30.6 18.0
847 1 5.4 30.6 21.6
848 1 5.4 30.6 25.2
849 1 5.4 30.6 28.8
850 1 5.4 30.6 32.4
851 1 5.4 30.6 36.0
852 1 5.4 32.4 1.8
853 1 5.4 32.4 5.4
854 1 5.4 32.4 9.0
855 1 5.4 32.4 12.6
856 1 5.4 32.4 16.2
857 1 5.4 32.4 19.8
858 1 5.4 32.4 23.4
859 1 5.4 32.4 27.0
860 1 5.4 32.4 30.6
861 1 5.4 32.4 34.2
862 1 5.4 34.2 0.0
863 1 5.4 34.2 3.6
864 1 5.4 34.2 7.2
865 1 5.4 34.2 10.8
866 1 5.4 34.2 14.4
867 1 5.4 34.2 18.0
868 1 5.4 34.2 21.6
869 1 5.4 34.2 25.2
870 1 5.4 34.2 28.8
871 1 5.4 34.2 32.4
872 1 5.4 34.2 36.0
873 1 5.4 36.0 1.8
874 1 5.4 36.0 5.4
875 1 5.4 36.0 9.0
876 1 5.4 36.0 12.6
877 1 5.4 36.0 16.2
878 1 5.4 36.0 19.8
879 1 5.4 36.0 23.4
880 1 5.4 36.0 27.0
881 1 5.4 36.0 30.6
882 1 5.4 36.0 34.2
883 1 7.2 0.0 0.0
884 1 7.2 0.0 3.6
885 1 7.2 0.0 7.2
886 1 7.2 0.0 10.8
887 1 7.2 0.0 14.4
888 1 7.2 0.0 18.0
889 1 7.2 0.0 21.6
890 1 7.2 0.0 25.2
891 1 7.2 0.0 28.8
892 1 7.2 0.0 32.4
893 1 7.2 0.0 36.0
894 1 7.2 1.8 1.8
895 1 7.2 1.8 5.4
896 1 7.2 1.8 9.0
897 1 7.2 1.8 12.6
898 1 7.2 1.8 16.2
899 1 7.2 1.8 19.8
900 1 7.2 1.8 23.4
901 1 7.2 1.8 27.0
902 1 7.2 1.8 30.6
903 1 7.2 1.8 34.2
904 1 7.2 3.6 0.0
905 1 7.2 3.6 3.6
906 1 7.2 3.6 7.2
907 1 7.2 3.6 10.8
908 1 7.2 3.6 14.4
909 1 7.2 3.6 18.0
910 1 7.2 3.6 21.6
911 1 7.2 3.6 25.2
912 1 7.2 3.6 28.8
913 1 7.2 3.6 32.4
914 1 7.2 3.6 36.0
915 1 7.2 5.4 1.8
916 1 7.2 5.4 5.4
917 1 7.2 5.4 9.0
918 1 7.2 5.4 12.6
919 1 7.2 5.4 16.2
920 1 7.2 5.4 19.8
921 1 7.2 5.4 23.4
922 1 7.2 5.4 27.0
923 1 7.2 5.4 30.6
924 1 7.2 5.4 34.2
925 1 7.2 7.2 0.0
926 1 7.2 7.2 3.6
927 1 7.2 7.2 7.2
928 1 7.2 7.2 10.8
929 1 7.2 7.2 14.4
930 1 7.2 7.2 18.0
931 1 7.2 7.2 21.6
932 1 7.2 7.2 25.2
933 1 7.2 7.2 28.8
934 1 7.2 7.2 32.4
935 1 7.2 7.2 36.0
936 1 7.2 9.0 1.8
937 1 7.2 9.0 5.4
938 1 7.2 9.0 9.0
939 1 7.2 9.0 12.6
940 1 7.2 9.0 16.2
941 1 7.2 9.0 19.8
942 1 7.2 9.0 23.4
943 1 7.2 9.0 27.0
944 1 7.2 9.0 30.6
945 1 7.2 9.0 34.2
946 1 7.2 10.8 0.0
947 1 7.2 10.8 3.6
948 1 7.2 10.8 7.2
949 1 7.2 10.8 10.8
950 1 7.2 10.8 14.4
951 1 7.2 10.8 18.0
952 1 7.2 10.8 21.6
953 1 7.2 10.8 25.2
954 1 7.2 10.8 28.8
955 1 7.2 10.8 32.4
956 1 7.2 10.8 36.0
957 1 7.2 12.6 1.8
958 1 7.2 12.6 5.4
959 1 7.2 12.6 9.0
960 1 7.2 12.6 12.6
961 1 7.2 12.6 16.2
962 1 7.2 12.6 19.8
963 1 7.2 12.6 23.4
964 1 7.2 12.6 27.0
965 1 7.2 12.6 30.6
966 1 7.2 12.6 34.2
967 1 7.2 14.4 0.0
968 1 7.2 14.4 3.6
969 1 7.2 14.4 7.2
970 1 7.2 14.4 10.8
971 1 7.2 14.4 14.4
972 1 7.2 14.4 18.0
973 1 7.2 14.4 21.6
974 1 7.2 14.4 25.2
975 1 7.2 14.4 28.8
976 1 7.2 14.4 32.4
977 1 7.2 14.4 36.0
978 1 7.2 16.2 1.8
979 1 7.2 16.2 5.4
980 1 7.2 16.2 9.0
981 1 7.2 16.2 12.6
982 1 7.2 16.2 16.2
983 1 7.2 16.2 19.8
984 1 7.2 16.2 23.4
985 1 7.2 16.2 27.0
986 1 7.2 16.2 30.6
987 1 7.2 16.2 34.2
988 1 7.2 18.0 0.0
989 1 7.2 18.0 3.6
990 1 7.2 18.0 7.2
991 1 7.2 18.0 10.8
992 1 7.2 18.0 14.4
993 1 7.2 18.0 18.0
994 1 7.2 18.0 21.6
995 1 7.2 18.0 25.2
996 1 7.2 18.0 28.8
997 1 7.2 18.0 32.4
998 1 7.2 18.0 36.0
999 1 7.2 19.8 1.8
1000 1 7.2 19.8 5.4
1001 1 7.2 19.8 9.0
1002 1 7.2 19.8 12.6
1003 1 7.2 19.8 16.2
1004 1 7.2 19.8 19.8
1005 1 7.2 19.8 23.4
1006 1 7.2 19.8 27.0
1007 1 7.2 19.8 30.6
1008 1 7.2 19.8 34.2
1009 1 7.2 21.6 0.0
1010 1 7.2 21.6 3.6
1011 1 7.2 21.6 7.2
1012 1 7.2 21.6 10.8
1013 1 7.2 21.6 14.4
1014 1 7.2 21.6 18.0
1015 1 7.2 21.6 21.6
1016 1 7.2 21.6 25.2
1017 1 7.2 21.6 28.8
1018 1 7.2 21.6 32.4
1019 1 7.2 21.6 36.0
1020 1 7.2 23.4 1.8
1021 1 7.2 23.4 5.4
1022 1 7.2 23.4 9.0
1023 1 7.2 23.4 12.6
1024 1 7.2 23.4 16.2
1025 1 7.2 23.4 19.8
1026 1 7.2 23.4 23.4
1027 1 7.2 23.4 27.0
1028 1 7.2 23.4 30.6
1029 1 7.2 23.4 34.2
1030 1 7.2 25.2 0.0
1031 1 7.2 25.2 3.6
1032 1 7.2 25.2 7.2
1033 1 7.2 25.2 10.8
1034 1 7.2 25.2 14.4
1035 1 7.2 25.2 18.0
1036 1 7.2 25.2 21.6
1037 1 7.2 25.2 25.2
1038 1 7.2 25.2 28.8
1039 1 7.2 25.2 32.4
1040 1 7.2 25.2 36.0
1041 1 7.2 27.0 1.8
1042 1 7.2 27.0 5.4
1043 1 7.2 27.0 9.0
1044 1 7.2 27.0 12.6
1045 1 7.2 27.0 16.2
1046 1 7.2 27.0 19.8
1047 1 7.2 27.0 23.4
1048 1 7.2 27.0 27.0
1049 1 7.2 27.0 30.6
1050 1 7.2 27.0 34.2
1051 1 7.2 28.8 0.0
1052 1 7.2 28.8 3.6
1053 1 7.2 28.8 7.2
1054 1 7.2 28.8 10.8
1055 1 7.2 28.8 14.4
1056 1 7.2 28.8 18.0
1057 1 7.2 28.8 21.6
1058 1 7.2 28.8 25.2
1059 1 7.2 28.8 28.8
1060 1 7.2 28.8 32.4
1061 1 7.2 28.8 36.0
1062 1 7.2 30.6 1.8
1063 1 7.2 30.6 5.4
1064 1 7.2 30.6 9.0
1065 1 7.2 30.6 12.6
1066 1 7.2 30.6 16.2
1067 1 7.2 30.6 19.8
1068 1 7.2 30.6 23.4
1069 1 7.2 30.6 27.0
1070 1 7.2 30.6 30.6
1071 1 7.2 30.6 34.2
1072 1 7.2 32.4 0.0
1073 1 7.2 32.4 3.6
1074 1 7.2 32.4 7.2
1075 1 7.2 32.4 10.8
1076 1 7.2 32.4 14.4
1077 1 7.2 32.4 18.0
1078 1 7.2 32.4 21.6
1079 1 7.2 32.4 25.2
1080 1 7.2 32.4 28.8
1081 1 7.2 32.4 32.4
1082 1 7.2 32.4 36.0
1083 1 7.2 34.2 1.8
1084 1 7.2 34.2 5.4
1085 1 7.2 34.2 9.0
1086 1 7.2 34.2 12.6
1087 1 7.2 34.2 16.2
1088 1 7.2 34.2 19.8
1089 1 7.2 34.2 23.4
1090 1 7.2 34.2 27.0
1091 1 7.2 34.2 30.6
1092 1 7.2 34.2 34.2
1093 1 7.2 36.0 0.0
1094 1 7.2 36.0 3.6
1095 1 7.2 36.0 7.2
1096 1 7.2 36.0 10.8
1097 1 7.2 36.0 14.4
1098 1 7.2 36.0 18.0
1099 1 7.2 36.0 21.6
1100 1 7.2 36.0 25.2
1101 1 7.2 36.0 28.8
1102 1 7.2 36.0 32.4
1103 1 7.2 36.0 36.0
1104 1 9.0 0.0 1.8
1105 1 9.0 0.0 5.4
1106 1 9.0 0.0 9.0
1107 1 9.0 0.0 12.6
1108 1 9.0 0.0 16.2
1109 1 9.0 0.0 19.8
1110 1 9.0 0.0 23.4
1111 1 9.0 0.0 27.0
1112 1 9.0 0.0 30.6
1113 1 9.0 0.0 34.2
1114 1 9.0 1.8 0.0
1115 1 9.0 1.8 3.6
1116 1 9.0 1.8 7.2
1117 1 9.0 1.8 10.8
1118 1 9.0 1.8 14.4
1119 1 9.0 1.8 18.0
1120 1 9.0 1.8 21.6
1121 1 9.0 1.8 25.2
1122 1 9.0 1.8 28.8
1123 1 9.0 1.8 32.4
1124 1 9.0 1.8 36.0
1125 1 9.0 3.6 1.8
1126 1 9.0 3.6 5.4
1127 1 9.0 3.6 9.0
1128 1 9.0 3.6 12.6
1129 1 9.0 3.6 16.2
1130 1 9.0 3.6 19.8
1131 1 9.0 3.6 23.4
1132 1 9.0 3.6 27.0
1133 1 9.0 3.6 30.6
1134 1 9.0 3.6 34.2
1135 1 9.0 5.4 0.0
1136 1 9.0 5.4 3.6
1137 1 9.0 5.4 7.2
1138 1 9.0 5.4 10.8
1139 1 9.0 5.4 14.4
1140 1 9.0 5.4 18.0
1141 1 9.0 5.4 21.6
1142 1 9.0 5.4 25.2
1143 1 9.0 5.4 28.8
1144 1 9.0 5.4 32.4
1145 1 9.0 5.4 36.0
1146 1 9.0 7.2 1.8
1147 1 9.0 7.2 5.4
1148 1 9.0 7.2 9.0
1149 1 9.0 7.2 12.6
1150 1 9.0 7.2 16.2
1151 1 9.0 7.2 19.8
1152 1 9.0 7.2 23.4
1153 1 9.0 7.2 27.0
1154 1 9.0 7.2 30.6
1155 1 9.0 7.2 34.2
1156 1 9.0 9.0 0.0
1157 1 9.0 9.0 3.6
1158 1 9.0 9.0 7.2
1159 1 9.0 9.0 10.8
1160 1 9.0 9.0 14.4
1161 1 9.0 9.0 18.0
1162 1 9.0 9.0 21.6
1163 1 9.0 9.0 25.2
1164 1 9.0 9.0 28.8
1165 1 9.0 9.0 32.4
1166 1 9.0 9.0 36.0
1167 1 9.0 10.8 1.8
1168 1 9.0 10.8 5.4
1169 1 9.0 10.8 9.0
1170 1 9.0 10.8 12.6
1171 1 9.0 10.8 16.2
1172 1 9.0 10.8 19.8
1173 1 9.0 10.8 23.4
1174 1 9.0 10.8 27.0
1175 1 9.0 10.8 30.6
1176 1 9.0 10.8 34.2
1177 1 9.0 12.6 0.0
1178 1 9.0 12.6 3.6
1179 1 9.0 12.6 7.2
1180 1 9.0 12.6 10.8
1181 1 9.0 12.6 14.4
1182 1 9.0 12.6 18.0
1183 1 9.0 12.6 21.6
1184 1 9.0 12.6 25.2
1185 1 9.0 12.6 28.8
1186 1 9.0 12.6 32.4
1187 1 9.0 12.6 36.0
1188 1 9.0 14.4 1.8
1189 1 9.0 14.4 5.4
1190 1 9.0 14.4 9.0
1191 1 9.0 14.4 12.6
1192 1 9.0 14.4 16.2
1193 1 9.0 14.4 19.8
1194 1 9.0 14.4 23.4
1195 1 9.0 14.4 27.0
1196 1 9.0 14.4 30.6
1197 1 9.0 14.4 34.2
1198 1 9.0 16.2 0.0
1199 1 9.0 16.2 3.6
1200 1 9.0 16.2 7.2
1201 1 9.0 16.2 10.8
1202 1 9.0 16.2 14.4
1203 1 9.0 16.2 18.0
1204 1 9.0 16.2 21.6
1205 1 9.0 16.2 25.2
1206 1 9.0 16.2 28.8
1207 1 9.0 16.2 32.4
1208 1 9.0 16.2 36.0
1209 1 9.0 18.0 1.8
1210 1 9.0 18.0 5.4
1211 1 9.0 18.0 9.0
1212 1 9.0 18.0 12.6
1213 1 9.0 18.0 16.2
1214 1 9.0 18.0 19.8
1215 1 9.0 18.0 23.4
1216 1 9.0 18.0 27.0
1217 1 9.0 18.0 30.6
1218 1 9.0 18.0 34.2
1219 1 9.0 19.8 0.0
1220 1 9.0 19.8 3.6
1221 1 9.0 19.8 7.2
1222 1 9.0 19.8 10.8
1223 1 9.0 19.8 14.4
1224 1 9.0 19.8 18.0
1225 1 9.0 19.8 21.6
1226 1 9.0 19.8 25.2
1227 1 9.0 19.8 28.8
1228 1 9.0 19.8 32.4
1229 1 9.0 19.8 36.0
1230 1 9.0 21.6 1.8
1231 1 9.0 21.6 5.4
1232 1 9.0 21.6 9.0
1233 1 9.0 21.6 12.6
1234 1 9.0 21.6 16.2
1235 1 9.0 21.6 19.8
1236 1 9.0 21.6 23.4
1237 1 9.0 21.6 27.0
1238 1 9.0 21.6 30.6
1239 1 9.0 21.6 34.2
1240 1 9.0 23.4 0.0
1241 1 9.0 23.4 3.6
1242 1 9.0 23.4 7.2
1243 1 9.0 23.4 10.8
1244 1 9.0 23.4 14.4
1245 1 9.0 23.4 18.0
1246 1 9.0 23.4 21.6
1247 1 9.0 23.4 25.2
1248 1 9.0 23.4 28.8
1249 1 9.0 23.4 32.4
1250 1 9.0 23.4 36.0
1251 1 9.0 25.2 1.8
1252 1 9.0 25.2 5.4
1253 1 9.0 25.2 9.0
1254 1 9.0 25.2 12.6
1255 1 9.0 25.2 16.2
1256 1 9.0 25.2 19.8
1257 1 9.0 25.2 23.4
1258 1 9.0 25.2 27.0
1259 1 9.0 25.2 30.6
1260 1 9.0 25.2 34.2
1261 1 9.0 27.0 0.0
1262 1 9.0 27.0 3.6
1263 1 9.0 27.0 7.2
1264 1 9.0 27.0 10.8
1265 1 9.0 27.0 14.4
1266 1 9.0 27.0 18.0
1267 1 9.0 27.0 21.6
1268 1 9.0 27.0 25.2
1269 1 9.0 27.0 28.8
1270 1 9.0 27.0 32.4
1271 1 9.0 27.0 36.0
1272 1 9.0 28.8 1.8
1273 1 9.0 28.8 5.4
1274 1 9.0 28.8 9.0
1275 1 9.0 28.8 12.6
1276 1 9.0 28.8 16.2
1277 1 9.0 28.8 19.8
1278 1 9.0 28.8 23.4
1279 1 9.0 28.8 27.0
1280 1 9.0 28.8 30.6
1281 1 9.0 28.8 34.2
1282 1 9.0 30.6 0.0
1283 1 9.0 30.6 3.6
1284 1 9.0 30.6 7.2
1285 1 9.0 30.6 10.8
1286 1 9.0 30.6 14.4
1287 1 9.0 30.6 18.0
1288 1 9.0 30.6 21.6
1289 1 9.0 30.6 25.2
1290 1 9.0 30.6 28.8
1291 1 9.0 30.6 32.4
1292 1 9.0 30.6 36.0
1293 1 9.0 32.4 1.8
1294 1 9.0 32.4 5.4
1295 1 9.0 32.4 9.0
1296 1 9.0 32.4 12.6
1297 1 9.0 32.4 16.2
1298 1 9.0 32.4 19.8
1299 1 9.0 32.4 23.4
1300 1 9.0 32.4 27.0
1301 1 9.0 32.4 30.6
1302 1 9.0 32.4 34.2
1303 1 9.0 34.2 0.0
1304 1 9.0 34.2 3.6
1305 1 9.0 34.2 7.2
1306 1 9.0 34.2 10.8
1307 1 9.0 34.2 14.4
1308 1 9.0 34.2 18.0
1309 1 9.0 34.2 21.6
1310 1 9.0 34.2 25.2
1311 1 9.0 34.2 28.8
1312 1 9.0 34.2 32.4
1313 1 9.0 34.2 36.0
1314 1 9.0 36.0 1.8
1315 1 9.0 36.0 5.4
1316 1 9.0 36.0 9.0
1317 1 9.0 36.0 12.6
1318 1 9.0 36.0 16.2
1319 1 9.0 36.0 19.8
1320 1 9.0 36.0 23.4
1321 1 9.0 36.0 27.0
1322 1 9.0 36.0 30.6
1323 1 9.0 36.0 34.2
1324 1 10.8 0.0 0.0
1325 1 10.8 0.0 3.6
1326 1 10.8 0.0 7.2
1327 1 10.8 0.0 10.8
1328 1 10.8 0.0 14.4
1329 1 10.8 0.0 18.0
1330 1 10.8 0.0 21.6
1331 1 10.8 0.0 25.2
1332 1 10.8 0.0 28.8
1333 1 10.8 0.0 32.4
1334 1 10.8 0.0 36.0
1335 1 10.8 1.8 1.8
1336 1 10.8 1.8 5.4
1337 1 10.8 1.8 9.0
1338 1 10.8 1.8 12.6
1339 1 10.8 1.8 16.2
1340 1 10.8 1.8 19.8
1341 1 10.8 1.8 23.4
1342 1 10.8 1.8 27.0
1343 1 10.8 1.8 30.6
1344 1 10.8 1.8 34.2
1345 1 10.8 3.6 0.0
1346 1 10.8 3.6 3.6
1347 1 10.8 3.6 7.2
1348 1 10.8 3.6 10.8
1349 1 10.8 3.6 14.4
1350 1 10.8 3.6 18.0
1351 1 10.8 3.6 21.6
1352 1 10.8 3.6 25.2
1353 1 10.8 3.6 28.8
1354 1 10.8 3.6 32.4
1355 1 10.8 3.6 36.0
1356 1 10.8 5.4 1.8
1357 1 10.8 5.4 5.4
1358 1 10.8 5.4 9.0
1359 1 10.8 5.4 12.6
1360 1 10.8 5.4 16.2
1361 1 10.8 5.4 19.8
1362 1 10.8 5.4 23.4
1363 1 10.8 5.4 27.0
1364 1 10.8 5.4 30.6
1365 1 10.8 5.4 34.2
1366 1 10.8 7.2 0.0
1367 1 10.8 7.2 3.6
1368 1 10.8 7.2 7.2
1369 1 10.8 7.2 10.8
1370 1 10.8 7.2 14.4
1371 1 10.8 7.2 18.0
1372 1 10.8 7.2 21.6
1373 1 10.8 7.2 25.2
1374 1 10.8 7.2 28.8
1375 1 10.8 7.2 32.4
1376 1 10.8 7.2 36.0
1377 1 10.8 9.0 1.8
1378 1 10.8 9.0 5.4
1379 1 10.8 9.0 9.0
1380 1 10.8 9.0 12.6
1381 1 10.8 9.0 16.2
1382 1 10.8 9.0 19.8
1383 1 10.8 9.0 23.4
1384 1 10.8 9.0 27.0
1385 1 10.8 9.0 30.6
1386 1 10.8 9.0 34.2
1387 1 10.8 10.8 0.0
1388 1 10.8 10.8 3.6
1389 1 10.8 10.8 7.2
1390 1 10.8 10.8 10.8
1391 1 10.8 10.8 14.4
1392 1 10.8 10.8 18.0
1393 1 10.8 10.8 21.6
1394 1 10.8 10.8 25.2
1395 1 10.8 10.8 28.8
1396 1 10.8 10.8 32.4
1397 1 10.8 10.8 36.0
1398 1 10.8 12.6 1.8
1399 1 10.8 12.6 5.4
1400 1 10.8 12.6 9.0
1401 1 10.8 12.6 12.6
1402 1 10.8 12.6 16.2
1403 1 10.8 12.6 19.8
1404 1 10.8 12.6 23.4
1405 1 10.8 12.6 27.0
1406 1 10.8 12.6 30.6
1407 1 10.8 12.6 34.2
1408 1 10.8 14.4 0.0
1409 1 10.8 14.4 3.6
1410 1 10.8 14.4 7.2
1411 1 10.8 14.4 10.8
1412 1 10.8 14.4 14.4
1413 1 10.8 14.4 18.0
1414 1 10.8 14.4 21.6
1415 1 10.8 14.4 25.2
1416 1 10.8 14.4 28.8
1417 1 10.8 14.4 32.4
1418 1 10.8 14.4 36.0
1419 1 10.8 16.2 1.8
1420 1 10.8 16.2 5.4
1421 1 10.8 16.2 9.0
1422 1 10.8 16.2 12.6
1423 1 10.8 16.2 16.2
1424 1 10.8 16.2 19.8
1425 1 10.8 16.2 23.4
1426 1 10.8 16.2 27.0
1427 1 10.8 16.2 30.6
1428 1 10.8 16.2 34.2
1429 1 10.8 18.0 0.0
1430 1 10.8 18.0 3.6
1431 1 10.8 18.0 7.2
1432 1 10.8 18.0 10.8
1433 1 10.8 18.0 14.4
1434 1 10.8 18.0 18.0
1435 1 10.8 18.0 21.6
1436 1 10.8 18.0 25.2
1437 1 10.8 18.0 28.8
1438 1 10.8 18.0 32.4
1439 1 10.8 18.0 36.0
1440 1 10.8 19.8 1.8
1441 1 10.8 19.8 5.4
1442 1 10.8 19.8 9.0
1443 1 10.8 19.8 12.6
1444 1 10.8 19.8 16.2
1445 1 10.8 19.8 19.8
1446 1 10.8 19.8 23.4
1447 1 10.8 19.8 27.0
1448 1 10.8 19.8 30.6
1449 1 10.8 19.8 34.2
1450 1 10.8 21.6 0.0
1451 1 10.8 21.6 3.6
1452 1 10.8 21.6 7.2
1453 1 10.8 21.6 10.8
1454 1 10.8 21.6 14.4
1455 1 10.8 21.6 18.0
1456 1 10.8 21.6 21.6
1457 1 10.8 21.6 25.2
1458 1 10.8 21.6 28.8
1459 1 10.8 21.6 32.4
1460 1 10.8 21.6 36.0
1461 1 10.8 23.4 1.8
1462 1 10.8 23.4 5.4
1463 1 10.8 23.4 9.0
1464 1 10.8 23.4 12.6
1465 1 10.8 23.4 16.2
1466 1 10.8 23.4 19.8
1467 1 10.8 23.4 23.4
1468 1 10.8 23.4 27.0
1469 1 10.8 23.4 30.6
1470 1 10.8 23.4 34.2
1471 1 10.8 25.2 0.0
1472 1 10.8 25.2 3.6
1473 1 10.8 25.2 7.2
1474 1 10.8 25.2 10.8
1475 1 10.8 25.2 14.4
1476 1 10.8 25.2 18.0
1477 1 10.8 25.2 21.6
1478 1 10.8 25.2 25.2
1479 1 10.8 25.2 28.8
1480 1 10.8 25.2 32.4
1481 1 10.8 25.2 36.0
1482 1 10.8 27.0 1.8
1483 1 10.8 27.0 5.4
1484 1 10.8 27.0 9.0
1485 1 10.8 27.0 12.6
1486 1 10.8 27.0 16.2
1487 1 10.8 27.0 19.8
1488 1 10.8 27.0 23.4
1489 1 10.8 27.0 27.0
1490 1 10.8 27.0 30.6
1491 1 10.8 27.0 34.2
1492 1 10.8 28.8 0.0
1493 1 10.8 28.8 3.6
1494 1 10.8 28.8 7.2
1495 1 10.8 28.8 10.8
1496 1 10.8 28.8 14.4
1497 1 10.8 28.8 18.0
1498 1 10.8 28.8 21.6
1499 1 10.8 28.8 25.2
1500 1 10.8 28.8 28.8
1501 1 10.8 28.8 32.4
1502 1 10.8 28.8 36.0
1503 1 10.8 30.6 1.8
1504 1 10.8 30.6 5.4
1505 1 10.8 30.6 9.0
1506 1 10.8 30.6 12.6
1507 1 10.8 30.6 16.2
1508 1 10.8 30.6 19.8