ITEM: TIMESTEP
0
ITEM: NUMBER OF ATOMS
14
ITEM: BOX BOUNDS pp pp pp
-3.5 5.25
-3.5 5.25
-3.5 5.25
ITEM: ATOMS id type x y z
1 1 0.0 0.0 0.0
2 1 0.0 3.5 0.0
3 1 3.5 0.0 0.0
4 1 3.5 3.5 0.0
5 1 0.0 0.0 3.5
6 1 0.0 3.5 3.5
7 1 3.5 0.0 3.5
8 1 3.5 3.5 3.5
9 1 1.75 1.75 0.0
10 1 1.75 0.0 1.75
11 1 0.0 1.75 1.75
12 1 1.75 1.75 3.5
13 1 1.75 3.5 1.75
14 1 3.5 1.75 1.75
