ITEM: TIMESTEP
0
ITEM: NUMBER OF ATOMS
28
ITEM: BOX BOUNDS pp pp pp
-28.5532499834 28.5532499834
-28.5532499834 28.5532499834
-28.5532499834 28.5532499834
ITEM: ATOMS id type x y z Cluster
7579 1 -2.8553249983 -2.8553249983 -2.8553249983 1
7581 1 0.0 -2.8553249983 -2.8553249983 1
7619 1 -2.8553249983 0.0 -2.8553249983 1
6780 1 -1.4276624992 -1.4276624992 -4.2829874975 1
6820 1 -1.4276624992 1.4276624992 -4.2829874975 1
7621 1 0.0 -1.965177649e-22 -2.8553249983 1
7659 1 -2.8553249983 2.8553249983 -2.8553249983 1
7661 1 0.0 2.8553249983 -2.8553249983 1
8379 1 -2.8553249983 -2.8553249983 -3.5527136788e-15 1
7540 1 -1.4276624992 -4.2829874975 -1.4276624992 1
8381 1 0.0 -2.8553249983 -3.5527131925e-15 1
7578 1 -4.2829874975 -1.4276624992 -1.4276624992 1
7618 1 -4.2829874975 1.4276624992 -1.4276624992 1
8418 1 -4.2829874975 1.4276624992 1.4276624992 1
8419 1 -2.8553249983 0.0 -3.5527134238e-15 1
7582 1 1.4276624992 -1.4276624992 -1.4276624992 1
7622 1 1.4276624992 1.4276624992 -1.4276624992 1
8380 1 -1.4276624992 -1.4276624992 1.4276624992 1
8420 1 -1.4276624992 1.4276624992 1.4276624992 1
8421 1 0.0 -1.707054491e-22 -3.5527130328e-15 1
8457 1 -5.7106499967 2.8553249983 -3.5527136788e-15 1
7658 1 -4.2829874975 4.2829874975 -1.4276624992 1
8458 1 -4.2829874975 4.2829874975 1.4276624992 1
7660 1 -1.4276624992 4.2829874975 -1.4276624992 1
8460 1 -1.4276624992 4.2829874975 1.4276624992 1
8461 1 0.0 2.8553249983 -3.5527091341e-15 1
8499 1 -2.8553249983 5.7106499967 -3.5527136788e-15 1
9259 1 -2.8553249983 2.8553249983 2.8553249983 1
