ITEM: TIMESTEP
0
ITEM: NUMBER OF ATOMS
14
ITEM: BOX BOUNDS pp pp pp
-1.75 1.75
-1.75 1.75
-1.75 1.75
ITEM: ATOMS id type x y z
0 1 0.0 0.0 0.0
1 1 0.0 3.5 0.0
2 1 3.5 0.0 0.0
3 1 3.5 3.5 0.0
4 1 0.0 0.0 3.5
5 1 0.0 3.5 3.5
6 1 3.5 0.0 3.5
7 1 3.5 3.5 3.5
8 1 1.75 1.75 0.0
9 1 1.75 0.0 1.75
10 1 0.0 1.75 1.75
11 1 1.75 1.75 3.5
12 1 1.75 3.5 1.75
13 1 3.5 1.75 1.75
