ITEM: TIMESTEP
0
ITEM: NUMBER OF ATOMS
14
ITEM: BOX BOUNDS pp pp pp
-24.0513 24.0513
-24.0513 24.0513
-24.0513 24.0513
ITEM: ATOMS id type x y z Cluster
99 1 -24.0513 -24.0513 -20.6154 3
100 3 -22.3334 -22.3334 -18.8974 3
113 2 -24.0513 -20.6154 -20.6154 3
197 2 -24.0513 -24.0513 -17.1795 3
211 2 -24.0513 -20.6154 -17.1795 3
2758 2 -25.7692 -22.3334 -22.3334 3
2854 1 -29.2052 -22.3334 -18.8974 3
2855 4 -27.4872 -24.0513 -20.6154 3
2869 3 -27.4872 -20.6154 -20.6154 3
2870 1 -25.7692 -18.8974 -18.8974 3
2953 2 -27.4872 -24.0513 -17.1795 3
2954 3 -25.7692 -22.3334 -15.4616 3
2967 3 -27.4872 -20.6154 -17.1795 3
4312 1 -25.7692 -25.7692 -18.8974 3
