ITEM: TIMESTEP
0
ITEM: NUMBER OF ATOMS
20
ITEM: BOX BOUNDS pp pp pp
-24.0513 24.0513
-24.0513 24.0513
-24.0513 24.0513
ITEM: ATOMS id type x y z Cluster
687 3 -24.0513 -24.0513 0.0 1
688 2 -22.3334 -22.3334 1.71795 1
689 1 -20.6154 -24.0513 0.0 1
785 3 -24.0513 -24.0513 3.4359 1
787 1 -20.6154 -24.0513 3.4359 1
2045 3 -24.0513 -27.4872 -3.4359 1
2032 4 -22.3334 -29.2052 -1.71795 1
2046 2 -22.3334 -25.7692 -1.71795 1
2129 2 -24.0513 -30.9231 0.0 1
2130 4 -22.3334 -29.2052 1.71795 1
2145 2 -20.6154 -27.4872 0.0 1
2146 4 -18.8974 -25.7692 1.71795 1
2241 3 -24.0513 -27.4872 3.4359 1
2243 1 -20.6154 -27.4872 3.4359 1
2242 2 -22.3334 -25.7692 5.15385 1
4788 2 -25.7692 -29.2052 -1.71795 1
4802 4 -25.7692 -25.7692 -1.71795 1
4899 4 -27.4872 -27.4872 0.0 1
4886 2 -25.7692 -29.2052 1.71795 1
4900 2 -25.7692 -25.7692 1.71795 1
