ITEM: TIMESTEP
0
ITEM: NUMBER OF ATOMS
14
ITEM: BOX BOUNDS pp pp pp
-24.0513 24.0513
-24.0513 24.0513
-24.0513 24.0513
ITEM: ATOMS id type x y z Cluster
4834 4 5.15385 8.58975 1.71795 1
4836 4 8.58975 8.58975 1.71795 1
4849 4 6.8718 10.3077 0.0 1
4848 1 5.15385 12.0257 1.71795 1
4850 4 8.58975 12.0257 1.71795 1
4932 4 5.15385 8.58975 5.15385 1
4933 4 6.8718 6.8718 3.4359 1
4934 1 8.58975 8.58975 5.15385 1
4945 1 3.4359 10.3077 3.4359 1
4949 3 10.3077 10.3077 3.4359 1
4946 2 5.15385 12.0257 5.15385 1
4948 2 8.58975 12.0257 5.15385 1
4961 4 6.8718 13.7436 3.4359 1
5045 3 6.8718 10.3077 6.8718 1
