ITEM: TIMESTEP
0
ITEM: NUMBER OF ATOMS
86
ITEM: BOX BOUNDS pp pp pp
-24.0513 24.0513
-24.0513 24.0513
-24.0513 24.0513
ITEM: ATOMS id type x y z Cluster
685 1 -3.4359 -3.4359 -3.4359 0
574 1 -1.71795 -5.15385 -5.15385 0
586 1 -5.15385 -1.71795 -5.15385 0
588 4 -1.71795 -1.71795 -5.15385 0
670 3 -5.15385 -5.15385 -1.71795 0
672 1 -1.71795 -5.15385 -1.71795 0
684 1 -5.15385 -1.71795 -1.71795 0
769 3 -3.4359 -6.8718 0.0 0
781 4 -6.8718 -3.4359 0.0 0
768 4 -5.15385 -5.15385 1.71795 0
770 2 -1.71795 -5.15385 1.71795 0
782 2 -5.15385 -1.71795 1.71795 0
881 3 -3.4359 -3.4359 3.4359 0
868 3 -1.71795 -5.15385 5.15385 0
880 1 -5.15385 -1.71795 5.15385 0
882 4 -1.71795 -1.71795 5.15385 0
1875 4 -3.4359 0.0 -6.8718 0
1971 3 -6.8718 0.0 -3.4359 0
1874 2 -5.15385 1.71795 -5.15385 0
1876 4 -1.71795 1.71795 -5.15385 0
1987 2 -3.4359 3.4359 -3.4359 0
1890 2 -1.71795 5.15385 -5.15385 0
1972 1 -5.15385 1.71795 -1.71795 0
1986 4 -5.15385 5.15385 -1.71795 0
1988 2 -1.71795 5.15385 -1.71795 0
2069 3 -6.8718 0.0 0.0 0
2070 4 -5.15385 1.71795 1.71795 0
2083 3 -6.8718 3.4359 0.0 0
2084 1 -5.15385 5.15385 1.71795 0
2086 3 -1.71795 5.15385 1.71795 0
2099 1 -3.4359 6.8718 0.0 0
2167 2 -6.8718 0.0 3.4359 0
2168 2 -5.15385 1.71795 5.15385 0
2170 3 -1.71795 1.71795 5.15385 0
2183 4 -3.4359 3.4359 3.4359 0
2184 3 -1.71795 5.15385 5.15385 0
2267 4 -3.4359 0.0 6.8718 0
3319 4 0.0 -3.4359 -6.8718 0
3403 1 0.0 -6.8718 -3.4359 0
3306 4 1.71795 -5.15385 -5.15385 0
3419 4 3.4359 -3.4359 -3.4359 0
3320 3 1.71795 -1.71795 -5.15385 0
3322 3 5.15385 -1.71795 -5.15385 0
3404 4 1.71795 -5.15385 -1.71795 0
3406 1 5.15385 -5.15385 -1.71795 0
3420 1 5.15385 -1.71795 -1.71795 0
3501 3 0.0 -6.8718 0.0 0
3503 2 3.4359 -6.8718 0.0 0
3502 3 1.71795 -5.15385 1.71795 0
3504 4 5.15385 -5.15385 1.71795 0
3519 4 6.8718 -3.4359 0.0 0
3518 3 5.15385 -1.71795 1.71795 0
3599 2 0.0 -6.8718 3.4359 0
3600 4 1.71795 -5.15385 5.15385 0
3615 4 3.4359 -3.4359 3.4359 0
3614 1 1.71795 -1.71795 5.15385 0
3616 2 5.15385 -1.71795 5.15385 0
3711 4 0.0 -3.4359 6.8718 0
4607 1 0.0 0.0 -6.8718 0
4609 1 3.4359 0.0 -6.8718 0
4621 2 0.0 3.4359 -6.8718 0
4608 2 1.71795 1.71795 -5.15385 0
4610 4 5.15385 1.71795 -5.15385 0
4709 2 6.8718 0.0 -3.4359 0
4622 1 1.71795 5.15385 -5.15385 0
4721 1 3.4359 3.4359 -3.4359 0
4733 4 0.0 6.8718 -3.4359 0
4708 3 5.15385 1.71795 -1.71795 0
4720 3 1.71795 5.15385 -1.71795 0
4722 1 5.15385 5.15385 -1.71795 0
4806 3 5.15385 1.71795 1.71795 0
4807 4 6.8718 0.0 0.0 0
4818 1 1.71795 5.15385 1.71795 0
4820 3 5.15385 5.15385 1.71795 0
4821 2 6.8718 3.4359 0.0 0
4831 1 0.0 6.8718 0.0 0
4833 2 3.4359 6.8718 0.0 0
4902 3 1.71795 1.71795 5.15385 0
4904 4 5.15385 1.71795 5.15385 0
4905 1 6.8718 0.0 3.4359 0
4916 2 1.71795 5.15385 5.15385 0
4917 2 3.4359 3.4359 3.4359 0
4929 1 0.0 6.8718 3.4359 0
4999 1 0.0 0.0 6.8718 0
5001 4 3.4359 0.0 6.8718 0
5013 3 0.0 3.4359 6.8718 0
