ITEM: TIMESTEP
0
ITEM: NUMBER OF ATOMS
14
ITEM: BOX BOUNDS pp pp pp
-24.0513 24.0513
-24.0513 24.0513
-24.0513 24.0513
ITEM: ATOMS id type x y z Cluster
496 3 -15.4616 -22.3334 -5.15385 2
593 3 -17.1795 -24.0513 -3.4359 2
595 1 -13.7436 -24.0513 -3.4359 2
607 3 -17.1795 -20.6154 -3.4359 2
609 1 -13.7436 -20.6154 -3.4359 2
592 2 -18.8974 -22.3334 -1.71795 2
596 2 -12.0257 -22.3334 -1.71795 2
608 3 -15.4616 -18.8974 -1.71795 2
691 2 -17.1795 -24.0513 0.0 2
692 2 -15.4616 -22.3334 1.71795 2
693 1 -13.7436 -24.0513 0.0 2
705 2 -17.1795 -20.6154 0.0 2
707 1 -13.7436 -20.6154 0.0 2
2050 2 -15.4616 -25.7692 -1.71795 2
