ITEM: TIMESTEP
0
ITEM: NUMBER OF ATOMS
48
ITEM: BOX BOUNDS pp pp pp
-24.0513 24.0513
-24.0513 24.0513
-24.0513 24.0513
ITEM: ATOMS id type x y z Cluster
496 3 -15.46160 -22.33340 -5.15385 2
593 3 -17.17950 -24.05130 -3.43590 2
595 1 -13.74360 -24.05130 -3.43590 2
607 3 -17.17950 -20.61540 -3.43590 2
609 1 -13.74360 -20.61540 -3.43590 2
592 2 -18.89740 -22.33340 -1.71795 2
596 2 -12.02570 -22.33340 -1.71795 2
608 3 -15.46160 -18.89740 -1.71795 2
687 3 -24.05130 -24.05130 0.00000 1
688 2 -22.33340 -22.33340 1.71795 1
689 1 -20.61540 -24.05130 0.00000 1
691 2 -17.17950 -24.05130 0.00000 2
692 2 -15.46160 -22.33340 1.71795 2
693 1 -13.74360 -24.05130 0.00000 2
705 2 -17.17950 -20.61540 0.00000 2
707 1 -13.74360 -20.61540 0.00000 2
708 1 -12.02570 -18.89740 1.71795 0
785 3 -24.05130 -24.05130 3.43590 1
787 1 -20.61540 -24.05130 3.43590 1
792 3 -12.02570 -22.33340 5.15385 0
804 3 -15.46160 -18.89740 5.15385 0
805 4 -13.74360 -20.61540 3.43590 0
807 3 -10.30770 -20.61540 3.43590 0
808 3 -8.58975 -18.89740 5.15385 0
819 4 -13.74360 -17.17950 3.43590 0
820 3 -12.02570 -15.46160 5.15385 0
821 4 -10.30770 -17.17950 3.43590 0
903 4 -13.74360 -20.61540 6.87180 0
904 1 -12.02570 -18.89740 8.58975 0
905 3 -10.30770 -20.61540 6.87180 0
917 1 -13.74360 -17.17950 6.87180 0
919 1 -10.30770 -17.17950 6.87180 0
2045 3 -24.05130 -27.48720 -3.43590 1
2032 4 -22.33340 -29.20520 -1.71795 1
2046 2 -22.33340 -25.76920 -1.71795 1
2050 2 -15.46160 -25.76920 -1.71795 2
2129 2 -24.05130 -30.92310 0.00000 1
2130 4 -22.33340 -29.20520 1.71795 1
2145 2 -20.61540 -27.48720 0.00000 1
2146 4 -18.89740 -25.76920 1.71795 1
2241 3 -24.05130 -27.48720 3.43590 1
2243 1 -20.61540 -27.48720 3.43590 1
2242 2 -22.33340 -25.76920 5.15385 1
4788 2 -25.76920 -29.20520 -1.71795 1
4802 4 -25.76920 -25.76920 -1.71795 1
4899 4 -27.48720 -27.48720 0.00000 1
4886 2 -25.76920 -29.20520 1.71795 1
4900 2 -25.76920 -25.76920 1.71795 1
