ITEM: TIMESTEP
0
ITEM: NUMBER OF ATOMS
14
ITEM: BOX BOUNDS pp pp pp
-24.0513 24.0513
-24.0513 24.0513
-24.0513 24.0513
ITEM: ATOMS id type x y z Cluster
708 1 -12.0257 -18.8974 1.71795 0
792 3 -12.0257 -22.3334 5.15385 0
804 3 -15.4616 -18.8974 5.15385 0
805 4 -13.7436 -20.6154 3.4359 0
807 3 -10.3077 -20.6154 3.4359 0
808 3 -8.58975 -18.8974 5.15385 0
819 4 -13.7436 -17.1795 3.4359 0
820 3 -12.0257 -15.4616 5.15385 0
821 4 -10.3077 -17.1795 3.4359 0
903 4 -13.7436 -20.6154 6.8718 0
904 1 -12.0257 -18.8974 8.58975 0
905 3 -10.3077 -20.6154 6.8718 0
917 1 -13.7436 -17.1795 6.8718 0
919 1 -10.3077 -17.1795 6.8718 0
