ITEM: TIMESTEP
0
ITEM: NUMBER OF ATOMS
162
ITEM: BOX BOUNDS pp pp pp
-24.0513 24.0513
-24.0513 24.0513
-24.0513 24.0513
ITEM: ATOMS id type x y z Cluster
99 1 -24.0513 -24.0513 -20.6154 3
100 3 -22.3334 -22.3334 -18.8974 3
113 2 -24.0513 -20.6154 -20.6154 3
197 2 -24.0513 -24.0513 -17.1795 3
211 2 -24.0513 -20.6154 -17.1795 3
496 3 -15.4616 -22.3334 -5.15385 2
593 3 -17.1795 -24.0513 -3.4359 2
595 1 -13.7436 -24.0513 -3.4359 2
607 3 -17.1795 -20.6154 -3.4359 2
609 1 -13.7436 -20.6154 -3.4359 2
685 1 -3.4359 -3.4359 -3.4359 1
574 1 -1.71795 -5.15385 -5.15385 1
586 1 -5.15385 -1.71795 -5.15385 1
588 4 -1.71795 -1.71795 -5.15385 1
592 2 -18.8974 -22.3334 -1.71795 2
596 2 -12.0257 -22.3334 -1.71795 2
608 3 -15.4616 -18.8974 -1.71795 2
670 3 -5.15385 -5.15385 -1.71795 1
672 1 -1.71795 -5.15385 -1.71795 1
684 1 -5.15385 -1.71795 -1.71795 1
687 3 -24.0513 -24.0513 0.0 2
688 2 -22.3334 -22.3334 1.71795 2
689 1 -20.6154 -24.0513 0.0 2
691 2 -17.1795 -24.0513 0.0 2
692 2 -15.4616 -22.3334 1.71795 2
693 1 -13.7436 -24.0513 0.0 2
705 2 -17.1795 -20.6154 0.0 2
707 1 -13.7436 -20.6154 0.0 2
708 1 -12.0257 -18.8974 1.71795 2
769 3 -3.4359 -6.8718 0.0 1
781 4 -6.8718 -3.4359 0.0 1
768 4 -5.15385 -5.15385 1.71795 1
770 2 -1.71795 -5.15385 1.71795 1
782 2 -5.15385 -1.71795 1.71795 1
785 3 -24.0513 -24.0513 3.4359 2
787 1 -20.6154 -24.0513 3.4359 2
792 3 -12.0257 -22.3334 5.15385 2
804 3 -15.4616 -18.8974 5.15385 2
805 4 -13.7436 -20.6154 3.4359 2
807 3 -10.3077 -20.6154 3.4359 2
808 3 -8.58975 -18.8974 5.15385 2
819 4 -13.7436 -17.1795 3.4359 2
820 3 -12.0257 -15.4616 5.15385 2
821 4 -10.3077 -17.1795 3.4359 2
881 3 -3.4359 -3.4359 3.4359 1
868 3 -1.71795 -5.15385 5.15385 1
880 1 -5.15385 -1.71795 5.15385 1
882 4 -1.71795 -1.71795 5.15385 1
903 4 -13.7436 -20.6154 6.8718 2
904 1 -12.0257 -18.8974 8.58975 2
905 3 -10.3077 -20.6154 6.8718 2
917 1 -13.7436 -17.1795 6.8718 2
919 1 -10.3077 -17.1795 6.8718 2
1875 4 -3.4359 0.0 -6.8718 1
1971 3 -6.8718 0.0 -3.4359 1
1874 2 -5.15385 1.71795 -5.15385 1
1876 4 -1.71795 1.71795 -5.15385 1
1987 2 -3.4359 3.4359 -3.4359 1
1890 2 -1.71795 5.15385 -5.15385 1
2045 3 -24.0513 -27.4872 -3.4359 2
1972 1 -5.15385 1.71795 -1.71795 1
1986 4 -5.15385 5.15385 -1.71795 1
1988 2 -1.71795 5.15385 -1.71795 1
2032 4 -22.3334 -29.2052 -1.71795 2
2046 2 -22.3334 -25.7692 -1.71795 2
2050 2 -15.4616 -25.7692 -1.71795 2
2069 3 -6.8718 0.0 0.0 1
2070 4 -5.15385 1.71795 1.71795 1
2083 3 -6.8718 3.4359 0.0 1
2084 1 -5.15385 5.15385 1.71795 1
2086 3 -1.71795 5.15385 1.71795 1
2099 1 -3.4359 6.8718 0.0 1
2129 2 -24.0513 -30.9231 0.0 2
2130 4 -22.3334 -29.2052 1.71795 2
2145 2 -20.6154 -27.4872 0.0 2
2146 4 -18.8974 -25.7692 1.71795 2
2167 2 -6.8718 0.0 3.4359 1
2168 2 -5.15385 1.71795 5.15385 1
2170 3 -1.71795 1.71795 5.15385 1
2183 4 -3.4359 3.4359 3.4359 1
2184 3 -1.71795 5.15385 5.15385 1
2241 3 -24.0513 -27.4872 3.4359 2
2243 1 -20.6154 -27.4872 3.4359 2
2242 2 -22.3334 -25.7692 5.15385 2
2267 4 -3.4359 0.0 6.8718 1
2758 2 -25.7692 -22.3334 -22.3334 3
2854 1 -29.2052 -22.3334 -18.8974 3
2855 4 -27.4872 -24.0513 -20.6154 3
2869 3 -27.4872 -20.6154 -20.6154 3
2870 1 -25.7692 -18.8974 -18.8974 3
2953 2 -27.4872 -24.0513 -17.1795 3
2954 3 -25.7692 -22.3334 -15.4616 3
2967 3 -27.4872 -20.6154 -17.1795 3
3319 4 0.0 -3.4359 -6.8718 1
3403 1 0.0 -6.8718 -3.4359 1
3306 4 1.71795 -5.15385 -5.15385 1
3419 4 3.4359 -3.4359 -3.4359 1
3320 3 1.71795 -1.71795 -5.15385 1
3322 3 5.15385 -1.71795 -5.15385 1
3404 4 1.71795 -5.15385 -1.71795 1
3406 1 5.15385 -5.15385 -1.71795 1
3420 1 5.15385 -1.71795 -1.71795 1
3501 3 0.0 -6.8718 0.0 1
3503 2 3.4359 -6.8718 0.0 1
3502 3 1.71795 -5.15385 1.71795 1
3504 4 5.15385 -5.15385 1.71795 1
3519 4 6.8718 -3.4359 0.0 1
3518 3 5.15385 -1.71795 1.71795 1
3599 2 0.0 -6.8718 3.4359 1
3600 4 1.71795 -5.15385 5.15385 1
3615 4 3.4359 -3.4359 3.4359 1
3614 1 1.71795 -1.71795 5.15385 1
3616 2 5.15385 -1.71795 5.15385 1
3711 4 0.0 -3.4359 6.8718 1
4312 1 -25.7692 -25.7692 -18.8974 3
4607 1 0.0 0.0 -6.8718 1
4609 1 3.4359 0.0 -6.8718 1
4621 2 0.0 3.4359 -6.8718 1
4608 2 1.71795 1.71795 -5.15385 1
4610 4 5.15385 1.71795 -5.15385 1
4709 2 6.8718 0.0 -3.4359 1
4622 1 1.71795 5.15385 -5.15385 1
4721 1 3.4359 3.4359 -3.4359 1
4733 4 0.0 6.8718 -3.4359 1
4708 3 5.15385 1.71795 -1.71795 1
4720 3 1.71795 5.15385 -1.71795 1
4722 1 5.15385 5.15385 -1.71795 1
4788 2 -25.7692 -29.2052 -1.71795 2
4802 4 -25.7692 -25.7692 -1.71795 2
4806 3 5.15385 1.71795 1.71795 1
4807 4 6.8718 0.0 0.0 1
4818 1 1.71795 5.15385 1.71795 1
4820 3 5.15385 5.15385 1.71795 1
4821 2 6.8718 3.4359 0.0 1
4831 1 0.0 6.8718 0.0 1
4833 2 3.4359 6.8718 0.0 1
4834 4 5.15385 8.58975 1.71795 1
4836 4 8.58975 8.58975 1.71795 1
4849 4 6.8718 10.3077 0.0 1
4848 1 5.15385 12.0257 1.71795 1
4850 4 8.58975 12.0257 1.71795 1
4899 4 -27.4872 -27.4872 0.0 2
4886 2 -25.7692 -29.2052 1.71795 2
4900 2 -25.7692 -25.7692 1.71795 2
4902 3 1.71795 1.71795 5.15385 1
4904 4 5.15385 1.71795 5.15385 1
4905 1 6.8718 0.0 3.4359 1
4916 2 1.71795 5.15385 5.15385 1
4917 2 3.4359 3.4359 3.4359 1
4929 1 0.0 6.8718 3.4359 1
4932 4 5.15385 8.58975 5.15385 1
4933 4 6.8718 6.8718 3.4359 1
4934 1 8.58975 8.58975 5.15385 1
4945 1 3.4359 10.3077 3.4359 1
4949 3 10.3077 10.3077 3.4359 1
4946 2 5.15385 12.0257 5.15385 1
4948 2 8.58975 12.0257 5.15385 1
4961 4 6.8718 13.7436 3.4359 1
4999 1 0.0 0.0 6.8718 1
5001 4 3.4359 0.0 6.8718 1
5013 3 0.0 3.4359 6.8718 1
5045 3 6.8718 10.3077 6.8718 1
